# t (s)	mx ()	my ()	mz ()	m_z_yrange7_ ()	I_x (A)	ext_dwxpos (m)
0	0.10742054	0.000118746495	-0.6617771	-0.6629116	-8e-06	1.3620925e-08
1.004502951115123e-11	0.10742077	0.00017321474	-0.6617682	-0.66290295	-8e-06	1.3620954e-08
2.003219372023105e-11	0.107421495	0.0002260163	-0.66174513	-0.6628797	-8e-06	1.3621046e-08
3.0012673000134766e-11	0.107422	0.0002770439	-0.6617082	-0.6628425	-8e-06	1.3621112e-08
4.0046258277877315e-11	0.107422404	0.00032613607	-0.66165775	-0.6627918	-8e-06	1.3621161e-08
5.0017646762115416e-11	0.10742294	0.00037282825	-0.6615949	-0.66272855	-8e-06	1.3621228e-08
6.00411181173775e-11	0.107423775	0.0004174792	-0.66151977	-0.66265297	-8e-06	1.3621333e-08
7.000763860472069e-11	0.10742508	0.00045909916	-0.6614339	-0.66256654	-8e-06	1.36214995e-08
8.002415868385911e-11	0.1074268	0.00049762847	-0.66133744	-0.6624694	-8e-06	1.3621718e-08
9.004091426030411e-11	0.10742871	0.0005326662	-0.6612315	-0.66236275	-8e-06	1.36219604e-08
1.0000548632578414e-10	0.10743055	0.00056395296	-0.6611178	-0.6622482	-8e-06	1.3622194e-08
1.1002264746987579e-10	0.10743232	0.00059185893	-0.6609961	-0.6621257	-8e-06	1.3622418e-08
1.2003869675155558e-10	0.10743418	0.00061606255	-0.66086805	-0.6619968	-8e-06	1.3622655e-08
1.3000032635370378e-10	0.10743629	0.0006364219	-0.66073555	-0.6618633	-8e-06	1.3622922e-08
1.400139798304308e-10	0.10743877	0.00065296254	-0.66059804	-0.6617249	-8e-06	1.3623236e-08
1.5002801718454556e-10	0.10744146	0.00066539843	-0.6604575	-0.6615834	-8e-06	1.362358e-08
1.600423896056976e-10	0.107444145	0.00067372253	-0.660315	-0.6614398	-8e-06	1.3623918e-08
1.7000403075680155e-10	0.10744663	0.00067806395	-0.6601723	-0.6612961	-8e-06	1.3624233e-08
1.800181442112507e-10	0.107449085	0.000678631	-0.660029	-0.6611517	-8e-06	1.3624544e-08
1.9003215979405529e-10	0.107451625	0.0006754368	-0.65988684	-0.6610086	-8e-06	1.3624865e-08
2.0004613908042708e-10	0.107454285	0.000668547	-0.6597469	-0.66086763	-8e-06	1.3625203e-08
2.100074050953024e-10	0.10745701	0.00065813883	-0.65961087	-0.6607306	-8e-06	1.36255505e-08
2.200210686346207e-10	0.10745974	0.00064418546	-0.6594781	-0.6605969	-8e-06	1.3625895e-08
2.300341624208858e-10	0.107462324	0.0006268934	-0.6593504	-0.6604682	-8e-06	1.3626223e-08
2.4004691146064654e-10	0.10746471	0.0006065286	-0.65922844	-0.6603453	-8e-06	1.3626525e-08
2.5000656214501434e-10	0.10746694	0.00058351154	-0.6591137	-0.66022974	-8e-06	1.3626806e-08
2.60017252377706e-10	0.10746913	0.00055784406	-0.65900564	-0.66012084	-8e-06	1.3627086e-08
2.7002697411768487e-10	0.10747127	0.0005298122	-0.6589053	-0.66001976	-8e-06	1.3627357e-08
2.800368573163496e-10	0.10747335	0.0004996223	-0.6588135	-0.6599273	-8e-06	1.3627621e-08
2.90047187165501e-10	0.107475206	0.00046752655	-0.6587306	-0.6598438	-8e-06	1.3627856e-08
3.0000536340908923e-10	0.10747684	0.00043400304	-0.65865743	-0.65976995	-8e-06	1.3628063e-08
3.1001675818908815e-10	0.107478224	0.00039902245	-0.65859354	-0.6597055	-8e-06	1.3628239e-08
3.2002852384177434e-10	0.10747942	0.00036306962	-0.6585395	-0.6596511	-8e-06	1.3628391e-08
3.3004064182858494e-10	0.107480474	0.00032642085	-0.6584956	-0.6596068	-8e-06	1.3628524e-08
3.4000031400566704e-10	0.10748135	0.00028951536	-0.65846205	-0.65957296	-8e-06	1.3628636e-08
3.5001285178648957e-10	0.10748209	0.00025220172	-0.65843856	-0.6595493	-8e-06	1.3628728e-08
3.600254822973138e-10	0.107482575	0.00021495578	-0.6584252	-0.6595358	-8e-06	1.36287905e-08
3.7003810899114204e-10	0.10748278	0.0001780864	-0.658422	-0.65953255	-8e-06	1.36288145e-08
3.800506684580266e-10	0.107482746	0.00014187033	-0.65842855	-0.6595391	-8e-06	1.3628814e-08
3.9001039171127157e-10	0.10748258	0.00010672679	-0.6584446	-0.65955526	-8e-06	1.3628791e-08
4.000226761529242e-10	0.10748227	7.2564486e-05	-0.6584701	-0.6595808	-8e-06	1.36287515e-08
4.1003473020917527e-10	0.107481785	3.975147e-05	-0.6585044	-0.65961546	-8e-06	1.362869e-08
4.20046550944135e-10	0.10748106	8.465238e-06	-0.6585472	-0.6596585	-8e-06	1.3628599e-08
4.3000543407639833e-10	0.1074802	-2.0980835e-05	-0.6585977	-0.6597094	-8e-06	1.36284894e-08
4.4001682411484806e-10	0.10747916	-4.862937e-05	-0.65865594	-0.659768	-8e-06	1.3628357e-08
4.500280427782401e-10	0.10747801	-7.415244e-05	-0.6587209	-0.6598335	-8e-06	1.36282114e-08
4.6003908629043087e-10	0.10747674	-9.741567e-05	-0.6587922	-0.6599052	-8e-06	1.362805e-08
4.700499976292801e-10	0.10747534	-0.000118345364	-0.6588689	-0.6599825	-8e-06	1.3627873e-08
4.800081176725757e-10	0.10747385	-0.0001367753	-0.6589501	-0.6600642	-8e-06	1.3627685e-08
4.900188277105166e-10	0.10747228	-0.00015277942	-0.65903604	-0.66015077	-8e-06	1.3627485e-08
5.000294940647056e-10	0.107470624	-0.00016617248	-0.6591253	-0.66024077	-8e-06	1.3627276e-08
5.100400953912623e-10	0.107468925	-0.00017691962	-0.6592174	-0.66033345	-8e-06	1.362706e-08
5.200506522137635e-10	0.1074672	-0.00018500179	-0.6593116	-0.66042817	-8e-06	1.3626839e-08
5.300084685375145e-10	0.10746545	-0.00019040293	-0.65940636	-0.6605238	-8e-06	1.362662e-08
5.400188580557553e-10	0.10746371	-0.0001932088	-0.6595024	-0.66062045	-8e-06	1.3626398e-08
5.500292386752244e-10	0.10746192	-0.00019342742	-0.65959823	-0.66071695	-8e-06	1.3626172e-08
5.600396060839238e-10	0.10746015	-0.00019109788	-0.65969324	-0.6608127	-8e-06	1.36259475e-08
5.700499797703158e-10	0.10745841	-0.00018625881	-0.6597867	-0.6609068	-8e-06	1.3625727e-08
5.800077357590732e-10	0.10745674	-0.00017906363	-0.6598775	-0.6609983	-8e-06	1.3625515e-08
5.900182596159678e-10	0.10745513	-0.00016955573	-0.6599661	-0.6610875	-8e-06	1.3625309e-08
6.00028859467423e-10	0.107453585	-0.00015790731	-0.6600513	-0.6611734	-8e-06	1.3625116e-08
6.100395513043389e-10	0.1074521	-0.00014421942	-0.66013265	-0.66125524	-8e-06	1.3624927e-08
6.20050316642098e-10	0.10745064	-0.00012864024	-0.66020954	-0.6613327	-8e-06	1.36247404e-08
6.300084688260481e-10	0.10744927	-0.00011141443	-0.6602811	-0.6614049	-8e-06	1.3624567e-08
6.40019408409173e-10	0.10744803	-9.25049e-05	-0.6603479	-0.6614721	-8e-06	1.362441e-08
6.500304133297161e-10	0.107446894	-7.217389e-05	-0.660409	-0.66153365	-8e-06	1.3624266e-08
6.60041528063858e-10	0.107445866	-5.063399e-05	-0.660464	-0.66158915	-8e-06	1.3624136e-08
6.700526887017822e-10	0.107444964	-2.8076232e-05	-0.6605128	-0.6616383	-8e-06	1.3624021e-08
6.800111748194834e-10	0.10744412	-4.7929407e-06	-0.66055495	-0.66168076	-8e-06	1.3623914e-08
6.900224113551724e-10	0.10744338	1.9299621e-05	-0.66059065	-0.6617167	-8e-06	1.362382e-08
7.000336878769334e-10	0.10744278	4.388055e-05	-0.66061956	-0.6617459	-8e-06	1.3623745e-08
7.100449589709006e-10	0.10744229	6.877436e-05	-0.66064155	-0.66176814	-8e-06	1.3623683e-08
7.200035337469938e-10	0.107441954	9.361101e-05	-0.6606568	-0.66178346	-8e-06	1.362364e-08
7.300148003384334e-10	0.10744173	0.00011849679	-0.6606652	-0.661792	-8e-06	1.36236125e-08
7.400260558227357e-10	0.107441604	0.00014313262	-0.66066694	-0.66179365	-8e-06	1.3623596e-08
7.500373103262416e-10	0.10744165	0.00016729614	-0.66066206	-0.6617889	-8e-06	1.3623601e-08
7.60048586750726e-10	0.10744172	0.00019089381	-0.66065085	-0.6617775	-8e-06	1.3623611e-08
7.700071290829157e-10	0.10744185	0.00021361854	-0.66063344	-0.66176	-8e-06	1.3623627e-08
7.800183334913787e-10	0.107442155	0.00023551895	-0.66061	-0.6617365	-8e-06	1.3623666e-08
7.900295069698493e-10	0.107442595	0.0002563955	-0.66058093	-0.6617073	-8e-06	1.3623722e-08
8.000407057035113e-10	0.10744314	0.00027609675	-0.6605466	-0.66167265	-8e-06	1.362379e-08
8.100518513639372e-10	0.1074438	0.00029448883	-0.6605073	-0.66163313	-8e-06	1.3623874e-08
8.200102551937639e-10	0.10744452	0.00031138118	-0.66046375	-0.6615892	-8e-06	1.3623964e-08
8.300213494744862e-10	0.107445225	0.0003268696	-0.66041577	-0.6615409	-8e-06	1.3624055e-08
8.400324266190471e-10	0.10744605	0.00034078312	-0.6603641	-0.6614889	-8e-06	1.362416e-08
8.500434770130426e-10	0.10744702	0.00035305604	-0.6603092	-0.66143364	-8e-06	1.3624282e-08
8.600018412589565e-10	0.10744803	0.00036360463	-0.66025186	-0.6613759	-8e-06	1.362441e-08
8.700128824894067e-10	0.10744907	0.00037244943	-0.66019195	-0.66131556	-8e-06	1.3624542e-08
8.800239158637264e-10	0.107450135	0.0003794992	-0.6601302	-0.66125333	-8e-06	1.3624678e-08
8.900349367222633e-10	0.10745125	0.00038478803	-0.6600671	-0.66118985	-8e-06	1.3624819e-08
9.000459519180592e-10	0.10745241	0.0003883004	-0.66000324	-0.66112554	-8e-06	1.3624965e-08
9.100042842242924e-10	0.10745358	0.00039004476	-0.6599394	-0.6610611	-8e-06	1.3625114e-08
9.200153000488202e-10	0.10745477	0.00039007285	-0.6598752	-0.6609966	-8e-06	1.3625264e-08
9.300262967102518e-10	0.10745596	0.0003883826	-0.6598117	-0.6609326	-8e-06	1.3625416e-08
9.400372973797205e-10	0.10745714	0.00038501617	-0.6597492	-0.66086966	-8e-06	1.3625566e-08
9.500483195223603e-10	0.10745829	0.00038005927	-0.65968823	-0.66080827	-8e-06	1.3625711e-08
9.600066650554974e-10	0.10745941	0.00037362473	-0.6596295	-0.660749	-8e-06	1.3625854e-08
9.700177070883998e-10	0.10746051	0.00036571754	-0.6595727	-0.6606918	-8e-06	1.3625993e-08
9.80028688544083e-10	0.107461564	0.00035645507	-0.6595185	-0.66063726	-8e-06	1.3626127e-08
9.900396805508173e-10	0.10746256	0.00034593558	-0.6594673	-0.66058564	-8e-06	1.3626253e-08
1.0000506762526774e-09	0.107463546	0.00033425534	-0.6594194	-0.66053736	-8e-06	1.3626377e-08
1.0100090238729925e-09	0.10746448	0.0003215868	-0.65937525	-0.6604929	-8e-06	1.36264955e-08
1.020020010046218e-09	0.10746534	0.000307932	-0.65933466	-0.660452	-8e-06	1.3626606e-08
1.0300309963930162e-09	0.10746608	0.00029345942	-0.6592982	-0.66041523	-8e-06	1.3626699e-08
1.0400419879699175e-09	0.10746669	0.00027830142	-0.6592659	-0.6603827	-8e-06	1.3626776e-08
1.0500002995063347e-09	0.107467294	0.00026266507	-0.659238	-0.66035455	-8e-06	1.36268525e-08
1.0600112624311074e-09	0.10746789	0.00024651678	-0.6592145	-0.66033083	-8e-06	1.3626929e-08
1.0700222174060207e-09	0.10746838	0.0002300827	-0.6591955	-0.6603117	-8e-06	1.3626991e-08
1.0800331914298704e-09	0.10746868	0.00021345157	-0.659181	-0.6602972	-8e-06	1.3627028e-08
1.0900441861227072e-09	0.10746889	0.00019669658	-0.65917116	-0.66028726	-8e-06	1.3627055e-08
1.1000024777470442e-09	0.1074691	0.00018010005	-0.659166	-0.66028196	-8e-06	1.3627082e-08
1.1100134233404664e-09	0.10746921	0.00016367348	-0.6591652	-0.6602812	-8e-06	1.3627096e-08
1.1200243536841321e-09	0.107469134	0.00014757934	-0.6591687	-0.66028464	-8e-06	1.3627085e-08
1.1300353242344798e-09	0.10746905	0.00013181363	-0.65917647	-0.66029257	-8e-06	1.36270755e-08
1.140046277324421e-09	0.107469	0.00011655284	-0.65918857	-0.6603046	-8e-06	1.3627069e-08
1.150004564722265e-09	0.107468806	0.000102028614	-0.6592044	-0.6603206	-8e-06	1.3627044e-08
1.160015492068468e-09	0.10746844	8.8136156e-05	-0.65922403	-0.66034037	-8e-06	1.3626998e-08
1.1700264162274093e-09	0.10746797	7.499781e-05	-0.6592473	-0.6603638	-8e-06	1.3626939e-08
1.180037342436257e-09	0.10746754	6.275498e-05	-0.6592738	-0.66039044	-8e-06	1.3626884e-08
1.1900482695420614e-09	0.107467085	5.1495404e-05	-0.6593033	-0.6604201	-8e-06	1.3626826e-08
1.2000065395190538e-09	0.10746656	4.12938e-05	-0.6593354	-0.6604525	-8e-06	1.362676e-08
1.2100175059205692e-09	0.10746594	3.2054388e-05	-0.6593702	-0.66048753	-8e-06	1.362668e-08
1.2200285044026224e-09	0.107465215	2.3886985e-05	-0.659407	-0.6605246	-8e-06	1.3626589e-08
1.23003947023425e-09	0.107464455	1.6868804e-05	-0.65944564	-0.6605635	-8e-06	1.3626495e-08
1.2400504437138172e-09	0.10746376	1.1064528e-05	-0.6594858	-0.66060394	-8e-06	1.3626405e-08
1.2500087039526064e-09	0.107463084	6.48318e-06	-0.65952694	-0.6606454	-8e-06	1.36263205e-08
1.2600196706372779e-09	0.10746236	3.0355122e-06	-0.6595692	-0.660688	-8e-06	1.3626226e-08
1.270030627279326e-09	0.107461564	7.4859923e-07	-0.659612	-0.6607311	-8e-06	1.3626126e-08
1.280041608197691e-09	0.10746072	-3.6953625e-07	-0.659655	-0.6607744	-8e-06	1.3626019e-08
1.2900525716643267e-09	0.107459895	-3.153844e-07	-0.65969783	-0.6608175	-8e-06	1.3625915e-08
1.3000108783823835e-09	0.10745911	9.0704356e-07	-0.65974003	-0.66086	-8e-06	1.3625816e-08
1.3100218469098697e-09	0.10745837	3.2606436e-06	-0.6597818	-0.6609021	-8e-06	1.3625721e-08
1.3200328526513336e-09	0.10745764	6.659174e-06	-0.65982246	-0.6609431	-8e-06	1.3625628e-08
1.3300438568169037e-09	0.10745691	1.103695e-05	-0.65986186	-0.6609827	-8e-06	1.3625536e-08
1.340002175400695e-09	0.10745619	1.6334807e-05	-0.65989965	-0.6610208	-8e-06	1.36254465e-08
1.3500131805647084e-09	0.107455514	2.2576309e-05	-0.6599357	-0.6610571	-8e-06	1.36253595e-08
1.3600241983683558e-09	0.107454866	2.9681483e-05	-0.65996987	-0.6610915	-8e-06	1.3625276e-08
1.370035192772143e-09	0.10745424	3.7559825e-05	-0.6600018	-0.6611237	-8e-06	1.3625197e-08
1.3800461855492854e-09	0.10745366	4.613036e-05	-0.6600314	-0.66115344	-8e-06	1.3625125e-08
1.390004508508779e-09	0.10745313	5.52562e-05	-0.6600582	-0.6611805	-8e-06	1.3625058e-08
1.4000155392746258e-09	0.107452646	6.495966e-05	-0.66008246	-0.66120493	-8e-06	1.3624997e-08
1.4100265424473047e-09	0.10745224	7.512015e-05	-0.66010386	-0.6612265	-8e-06	1.3624945e-08
1.420037571276908e-09	0.10745188	8.566372e-05	-0.66012233	-0.66124517	-8e-06	1.36248985e-08
1.4300486049933366e-09	0.10745158	9.6501615e-05	-0.66013795	-0.66126084	-8e-06	1.3624861e-08
1.4400069118338989e-09	0.10745132	0.00010747087	-0.6601504	-0.6612734	-8e-06	1.36248275e-08
1.450017945761253e-09	0.107451044	0.0001186066	-0.66015977	-0.66128296	-8e-06	1.3624793e-08
1.4600289476722584e-09	0.10745083	0.0001297694	-0.6601662	-0.66128933	-8e-06	1.3624766e-08
1.4700399521389708e-09	0.10745072	0.00014090062	-0.6601695	-0.6612927	-8e-06	1.3624752e-08
1.4800509586215666e-09	0.10745077	0.00015192604	-0.6601698	-0.6612931	-8e-06	1.36247555e-08
1.4900092878720788e-09	0.107450895	0.00016267468	-0.66016734	-0.6612905	-8e-06	1.3624773e-08
1.5000202845860435e-09	0.10745094	0.00017319267	-0.6601619	-0.6612851	-8e-06	1.3624779e-08
1.510031300615212e-09	0.10745089	0.0001833311	-0.66015375	-0.6612768	-8e-06	1.3624772e-08
1.520042290734003e-09	0.10745092	0.0001930323	-0.6601429	-0.66126597	-8e-06	1.3624775e-08
1.5300005898570274e-09	0.10745112	0.00020227171	-0.6601296	-0.66125256	-8e-06	1.3624802e-08
1.5400115727543608e-09	0.107451476	0.00021108091	-0.6601139	-0.66123676	-8e-06	1.3624847e-08
1.5500225698265395e-09	0.10745191	0.0002192749	-0.660096	-0.66121876	-8e-06	1.3624902e-08
1.5600335648616484e-09	0.107452266	0.00022675938	-0.6600761	-0.66119874	-8e-06	1.3624947e-08
1.5700445494087668e-09	0.107452534	0.00023352986	-0.6600544	-0.6611769	-8e-06	1.3624982e-08
1.5800028527820373e-09	0.107452825	0.00023957733	-0.6600312	-0.6611535	-8e-06	1.36250184e-08
1.5900138499736185e-09	0.10745318	0.00024498097	-0.6600065	-0.66112864	-8e-06	1.3625062e-08
1.600024864200412e-09	0.10745366	0.00024967716	-0.65998054	-0.66110253	-8e-06	1.3625124e-08
1.6100358481886048e-09	0.10745425	0.0002535786	-0.6599536	-0.6610753	-8e-06	1.3625197e-08
1.620046854556035e-09	0.107454814	0.00025662765	-0.6599258	-0.66104734	-8e-06	1.3625271e-08
1.6300051819171667e-09	0.10745531	0.00025882857	-0.6598977	-0.661019	-8e-06	1.3625334e-08
1.640016172687204e-09	0.10745577	0.00026023778	-0.659869	-0.66099024	-8e-06	1.3625392e-08
1.6500271386007601e-09	0.10745622	0.00026090062	-0.6598402	-0.6609612	-8e-06	1.3625448e-08
1.6600381196150863e-09	0.10745672	0.00026084346	-0.6598116	-0.66093236	-8e-06	1.3625512e-08
1.6700490988459802e-09	0.107457295	0.0002600292	-0.65978324	-0.66090375	-8e-06	1.3625585e-08
1.680007394378269e-09	0.10745789	0.00025844926	-0.65975547	-0.66087574	-8e-06	1.3625659e-08
1.6900183507711443e-09	0.10745845	0.0002561067	-0.6597282	-0.6608483	-8e-06	1.3625732e-08
1.7000293355512675e-09	0.10745892	0.0002530747	-0.65970194	-0.6608219	-8e-06	1.3625791e-08
1.710040316718031e-09	0.10745935	0.00024942544	-0.6596766	-0.6607964	-8e-06	1.3625845e-08
1.7200512978073873e-09	0.10745977	0.00024521313	-0.6596526	-0.66077214	-8e-06	1.36258995e-08
1.730009568056689e-09	0.10746022	0.00024049339	-0.65963	-0.6607494	-8e-06	1.3625956e-08
1.7400205453364166e-09	0.107460685	0.0002352206	-0.6596088	-0.660728	-8e-06	1.3626016e-08
1.7500315600173023e-09	0.107461125	0.00022945745	-0.65958905	-0.6607082	-8e-06	1.362607e-08
1.7600425456971002e-09	0.10746146	0.00022325406	-0.6595712	-0.6606902	-8e-06	1.3626113e-08
1.770000851667389e-09	0.10746176	0.00021673628	-0.6595552	-0.6606741	-8e-06	1.3626149e-08
1.7800118310458905e-09	0.107462026	0.00020992417	-0.65954095	-0.66065973	-8e-06	1.36261855e-08
1.7900228201909976e-09	0.107462294	0.00020289046	-0.6595286	-0.6606473	-8e-06	1.36262175e-08
1.8000338194217541e-09	0.10746256	0.00019565165	-0.6595184	-0.660637	-8e-06	1.3626254e-08
1.81004476813728e-09	0.10746281	0.00018826293	-0.6595102	-0.66062874	-8e-06	1.3626284e-08
1.8200030786824876e-09	0.10746294	0.00018081655	-0.6595042	-0.66062254	-8e-06	1.3626301e-08
1.8300141085255943e-09	0.10746303	0.00017331	-0.6595	-0.6606184	-8e-06	1.36263125e-08
1.840025114119602e-09	0.107463054	0.00016586212	-0.659498	-0.6606164	-8e-06	1.3626315e-08
1.8500360803740604e-09	0.10746301	0.00015853808	-0.6594979	-0.6606163	-8e-06	1.3626309e-08
1.8600470702992694e-09	0.10746297	0.00015135643	-0.6594997	-0.66061807	-8e-06	1.3626305e-08
1.870005344101212e-09	0.10746298	0.00014438438	-0.65950346	-0.6606218	-8e-06	1.3626306e-08
1.88001633279737e-09	0.10746303	0.00013760137	-0.659509	-0.6606274	-8e-06	1.3626313e-08
1.8900273186879435e-09	0.107463025	0.0001310911	-0.65951633	-0.66063476	-8e-06	1.3626312e-08
1.9000383094108994e-09	0.10746283	0.00012489072	-0.6595253	-0.6606439	-8e-06	1.3626288e-08
1.910049274793275e-09	0.10746255	0.00011902728	-0.6595359	-0.6606546	-8e-06	1.3626251e-08
1.9200075953357448e-09	0.10746229	0.0001136146	-0.65954787	-0.66066664	-8e-06	1.36262175e-08
1.9300185876988506e-09	0.10746207	0.00010865419	-0.65956134	-0.66068006	-8e-06	1.362619e-08
1.940029571374401e-09	0.107461885	0.00010416811	-0.65957594	-0.66069484	-8e-06	1.3626167e-08
1.9500405690920356e-09	0.10746165	0.00010011525	-0.6595917	-0.6607106	-8e-06	1.36261376e-08
1.960051589516066e-09	0.10746136	9.650011e-05	-0.6596083	-0.6607273	-8e-06	1.3626102e-08
1.970009856493797e-09	0.10746102	9.341245e-05	-0.6596256	-0.66074485	-8e-06	1.3626057e-08
1.980020839050287e-09	0.107460655	9.087133e-05	-0.6596437	-0.660763	-8e-06	1.3626011e-08
1.990031809273663e-09	0.10746031	8.8886256e-05	-0.65966225	-0.6607817	-8e-06	1.3625966e-08
2e-09	0.10745998	8.744872e-05	-0.6596811	-0.6608007	-8e-06	1.3625925e-08
2.0100278800227983e-09	0.107459664	8.651962e-05	-0.6597003	-0.66082007	-8e-06	1.3625885e-08
2.02003887235751e-09	0.10745933	8.609342e-05	-0.6597195	-0.6608394	-8e-06	1.36258445e-08
2.030049868981684e-09	0.10745898	8.6168635e-05	-0.65973866	-0.66085875	-8e-06	1.3625798e-08
2.0400081507004897e-09	0.1074586	8.6753775e-05	-0.65975755	-0.6608777	-8e-06	1.3625752e-08
2.05e-09	0.107458234	8.7858876e-05	-0.65977615	-0.6608965	-8e-06	1.3625704e-08
2.060016280114012e-09	0.10745787	8.9453344e-05	-0.65979433	-0.6609148	-8e-06	1.3625659e-08
2.0700272808889938e-09	0.107457586	9.1500086e-05	-0.65981185	-0.6609325	-8e-06	1.36256215e-08
2.0800382650087084e-09	0.10745729	9.395447e-05	-0.6598287	-0.66094947	-8e-06	1.3625585e-08
2.0900492329441942e-09	0.10745699	9.678992e-05	-0.65984476	-0.6609656	-8e-06	1.3625546e-08
2.1e-09	0.10745669	9.997736e-05	-0.6598599	-0.6609808	-8e-06	1.3625509e-08
2.1100157304271965e-09	0.1074564	0.00010353584	-0.65987414	-0.66099507	-8e-06	1.3625472e-08
2.1200266997522933e-09	0.10745612	0.000107419226	-0.65988714	-0.6610083	-8e-06	1.3625437e-08
2.130037687210086e-09	0.10745587	0.000111583904	-0.659899	-0.66102034	-8e-06	1.3625405e-08
2.140048693429195e-09	0.10745566	0.00011596218	-0.6599097	-0.661031	-8e-06	1.3625378e-08
2.1500000000000002e-09	0.1074555	0.00012049891	-0.6599191	-0.6610404	-8e-06	1.3625357e-08
2.160015522780845e-09	0.107455336	0.00012522968	-0.6599272	-0.6610486	-8e-06	1.36253355e-08
2.170026518612448e-09	0.1074552	0.0001300893	-0.65993404	-0.66105545	-8e-06	1.36253195e-08
2.180037499222501e-09	0.10745507	0.0001350462	-0.65993935	-0.66106087	-8e-06	1.3625302e-08
2.190048534955487e-09	0.10745495	0.00014004421	-0.65994334	-0.6610649	-8e-06	1.3625288e-08
2.2000000000000003e-09	0.10745488	0.00014500813	-0.65994585	-0.66106755	-8e-06	1.3625278e-08
2.210015465588897e-09	0.10745489	0.00014997908	-0.6599472	-0.6610688	-8e-06	1.362528e-08
2.220026434311313e-09	0.10745491	0.00015488935	-0.65994716	-0.6610688	-8e-06	1.3625283e-08
2.230037439864223e-09	0.10745494	0.00015969783	-0.65994585	-0.66106755	-8e-06	1.3625287e-08
2.2400484341610404e-09	0.10745492	0.00016436541	-0.65994334	-0.661065	-8e-06	1.3625284e-08
2.2500000000000003e-09	0.1074549	0.00016885651	-0.6599396	-0.6610612	-8e-06	1.3625281e-08
2.2600154341667382e-09	0.107454926	0.00017319468	-0.6599347	-0.6610562	-8e-06	1.3625285e-08
2.2700263965068084e-09	0.10745502	0.00017732877	-0.6599286	-0.66105014	-8e-06	1.3625297e-08
2.2800373676055144e-09	0.10745519	0.00018123824	-0.6599215	-0.661043	-8e-06	1.3625319e-08
2.2900483551656865e-09	0.107455365	0.0001848634	-0.6599134	-0.6610349	-8e-06	1.3625341e-08
2.3000000000000003e-09	0.10745554	0.00018816165	-0.6599044	-0.6610258	-8e-06	1.3625361e-08
2.310015415140699e-09	0.10745567	0.00019116557	-0.65989465	-0.6610159	-8e-06	1.3625377e-08
2.32002641609242e-09	0.10745581	0.00019386063	-0.65988415	-0.6610054	-8e-06	1.3625397e-08
2.3300374196712383e-09	0.10745597	0.00019624131	-0.659873	-0.6609941	-8e-06	1.3625417e-08
2.3400483971056246e-09	0.10745619	0.00019829556	-0.65986127	-0.6609824	-8e-06	1.3625446e-08
2.3500000000000004e-09	0.107456446	0.0001999858	-0.6598492	-0.66097015	-8e-06	1.3625477e-08
2.3600154311415973e-09	0.1074567	0.00020131754	-0.65983677	-0.66095763	-8e-06	1.362551e-08
2.370026442178378e-09	0.10745692	0.0002022667	-0.65982413	-0.6609448	-8e-06	1.3625538e-08
2.380037432978055e-09	0.10745712	0.00020285034	-0.65981114	-0.6609319	-8e-06	1.3625564e-08
2.3900484319557e-09	0.10745734	0.00020310505	-0.6597983	-0.6609189	-8e-06	1.3625591e-08
2.4000000000000004e-09	0.10745757	0.00020303586	-0.65978557	-0.660906	-8e-06	1.362562e-08
2.4100154445024428e-09	0.10745784	0.0002026242	-0.6597728	-0.6608932	-8e-06	1.36256535e-08
2.420026436153081e-09	0.10745809	0.0002018736	-0.6597604	-0.6608806	-8e-06	1.36256855e-08
2.430037430850471e-09	0.10745832	0.00020079056	-0.6597482	-0.66086847	-8e-06	1.3625715e-08
2.440048441289677e-09	0.10745855	0.00019939766	-0.65973645	-0.6608566	-8e-06	1.3625742e-08
2.4500000000000004e-09	0.10745874	0.0001977355	-0.6597252	-0.66084534	-8e-06	1.3625768e-08
2.4600154125431453e-09	0.107458934	0.00019580808	-0.6597146	-0.66083455	-8e-06	1.3625794e-08
2.470026397796516e-09	0.10745913	0.00019364704	-0.6597045	-0.6608244	-8e-06	1.3625818e-08
2.4800373690749066e-09	0.10745932	0.00019125633	-0.659695	-0.6608148	-8e-06	1.3625843e-08
2.490048367539445e-09	0.10745951	0.000188645	-0.6596863	-0.6608061	-8e-06	1.3625866e-08
2.5000000000000005e-09	0.10745968	0.00018586921	-0.6596786	-0.6607982	-8e-06	1.3625887e-08
2.510015436161898e-09	0.107459806	0.00018292446	-0.6596714	-0.6607911	-8e-06	1.3625904e-08
2.5200264078459956e-09	0.10745993	0.00017985636	-0.6596652	-0.66078484	-8e-06	1.362592e-08
2.5300373824635755e-09	0.107460044	0.00017668547	-0.65965986	-0.6607795	-8e-06	1.3625932e-08
2.5400483837829835e-09	0.10746014	0.00017343284	-0.65965545	-0.660775	-8e-06	1.36259475e-08
2.5500000000000005e-09	0.10746024	0.00017015415	-0.659652	-0.6607715	-8e-06	1.3625958e-08
2.5600154019624072e-09	0.10746027	0.00016680827	-0.6596495	-0.66076887	-8e-06	1.36259635e-08
2.5700263982830218e-09	0.1074603	0.00016345536	-0.6596477	-0.6607672	-8e-06	1.3625965e-08
2.5800373857103736e-09	0.10746031	0.00016013706	-0.65964687	-0.66076636	-8e-06	1.3625967e-08
2.59004836362292e-09	0.10746031	0.00015688092	-0.659647	-0.66076636	-8e-06	1.3625969e-08
2.6000000000000005e-09	0.10746033	0.00015370527	-0.6596478	-0.6607673	-8e-06	1.362597e-08
2.6100154144055793e-09	0.10746034	0.00015058352	-0.65964955	-0.660769	-8e-06	1.3625971e-08
2.6200264089875785e-09	0.107460305	0.00014755678	-0.6596521	-0.66077155	-8e-06	1.3625967e-08
2.630037388578941e-09	0.10746026	0.00014465765	-0.65965545	-0.6607749	-8e-06	1.3625962e-08
2.640048377643254e-09	0.10746021	0.00014190293	-0.6596595	-0.660779	-8e-06	1.3625955e-08
2.6500000000000006e-09	0.10746013	0.00013933673	-0.65966415	-0.66078377	-8e-06	1.3625944e-08
2.6600154069771083e-09	0.10746002	0.00013693298	-0.6596696	-0.6607892	-8e-06	1.3625931e-08
2.6700264296454817e-09	0.10745992	0.00013470123	-0.6596756	-0.6607952	-8e-06	1.3625918e-08
2.6800374243181114e-09	0.10745981	0.00013268708	-0.65968215	-0.6608018	-8e-06	1.3625904e-08
2.6900484104313867e-09	0.1074597	0.00013089055	-0.6596892	-0.660809	-8e-06	1.362589e-08
2.7000000000000006e-09	0.10745957	0.00012931763	-0.6596966	-0.6608164	-8e-06	1.3625874e-08
2.7100154602184838e-09	0.10745943	0.00012795883	-0.65970445	-0.6608243	-8e-06	1.3625857e-08
2.7200264481182177e-09	0.10745928	0.00012683567	-0.6597125	-0.6608324	-8e-06	1.3625836e-08
2.730037455113817e-09	0.10745912	0.00012596021	-0.65972084	-0.6608408	-8e-06	1.3625818e-08
2.740048431809231e-09	0.10745897	0.00012531993	-0.6597293	-0.6608493	-8e-06	1.3625797e-08
2.7500000000000006e-09	0.10745883	0.00012492332	-0.65973794	-0.6608579	-8e-06	1.362578e-08
2.76001541980965e-09	0.107458666	0.00012475434	-0.65974647	-0.6608666	-8e-06	1.3625759e-08
2.770026420231442e-09	0.107458495	0.00012481	-0.65975505	-0.66087526	-8e-06	1.3625738e-08
2.780037393223487e-09	0.10745834	0.00012509504	-0.65976346	-0.6608838	-8e-06	1.3625718e-08
2.790048389238954e-09	0.107458204	0.00012561225	-0.65977186	-0.6608921	-8e-06	1.36257e-08
2.8000000000000007e-09	0.107458055	0.00012634054	-0.6597799	-0.6609003	-8e-06	1.3625682e-08
2.810015394770168e-09	0.107457906	0.00012726086	-0.6597877	-0.66090816	-8e-06	1.3625662e-08
2.8200263748361727e-09	0.107457735	0.00012836496	-0.6597952	-0.66091573	-8e-06	1.3625641e-08
2.8300373751296683e-09	0.1074576	0.0001296473	-0.6598024	-0.6609229	-8e-06	1.3625623e-08
2.8400483731298007e-09	0.107457474	0.00013110465	-0.65980905	-0.66092974	-8e-06	1.3625607e-08
2.8500000000000007e-09	0.10745737	0.00013270513	-0.65981525	-0.66093594	-8e-06	1.3625594e-08
2.860015422925961e-09	0.10745726	0.000134442	-0.6598211	-0.6609418	-8e-06	1.3625581e-08
2.8700264379960215e-09	0.10745714	0.00013630022	-0.65982634	-0.6609471	-8e-06	1.36255665e-08
2.8800374496695983e-09	0.10745703	0.0001382557	-0.65983105	-0.66095185	-8e-06	1.3625551e-08
2.8900484570539203e-09	0.10745695	0.00014029843	-0.6598352	-0.66095597	-8e-06	1.3625542e-08
2.9000000000000007e-09	0.107456885	0.00014240383	-0.6598387	-0.66095954	-8e-06	1.3625533e-08
2.910015420005558e-09	0.10745684	0.00014458144	-0.65984166	-0.6609625	-8e-06	1.3625527e-08
2.92002640814397e-09	0.107456796	0.00014679364	-0.65984404	-0.6609649	-8e-06	1.3625521e-08
2.930037366900999e-09	0.10745677	0.00014901737	-0.65984577	-0.66096663	-8e-06	1.36255185e-08
2.940048355021884e-09	0.107456736	0.00015123961	-0.65984696	-0.66096777	-8e-06	1.3625514e-08
2.9500000000000008e-09	0.1074567	0.00015343727	-0.65984744	-0.66096836	-8e-06	1.36255105e-08
2.9600154402184433e-09	0.10745669	0.00015561839	-0.6598475	-0.66096836	-8e-06	1.3625507e-08
2.970026436640152e-09	0.107456684	0.00015776842	-0.6598469	-0.66096777	-8e-06	1.3625508e-08
2.980037412588289e-09	0.10745671	0.0001598658	-0.65984577	-0.6609666	-8e-06	1.36255105e-08
2.990048384936802e-09	0.107456736	0.00016188771	-0.65984416	-0.6609649	-8e-06	1.3625515e-08
3.000000000000001e-09	0.10745678	0.00016380435	-0.6598419	-0.66096276	-8e-06	1.3625519e-08
3.0100154307878987e-09	0.107456796	0.00016563748	-0.6598393	-0.66096014	-8e-06	1.3625523e-08
3.0200264290933707e-09	0.10745684	0.00016736182	-0.6598361	-0.6609569	-8e-06	1.3625527e-08
3.0300374182872556e-09	0.10745688	0.00016897985	-0.65983254	-0.66095334	-8e-06	1.3625532e-08
3.0400484061243927e-09	0.10745696	0.00017047806	-0.6598286	-0.66094935	-8e-06	1.36255425e-08
3.050000000000001e-09	0.107457034	0.00017182984	-0.6598244	-0.66094506	-8e-06	1.3625553e-08
3.0600113907071363e-09	0.11815736	-0.007584468	-0.65622956	-0.6572703	-8e-06	1.4982353e-08
3.0700226048644508e-09	0.11163938	-0.025393886	-0.65252703	-0.6535088	-8e-06	1.4155874e-08
3.080033765287529e-09	0.09603622	-0.036601547	-0.6491097	-0.6501027	-8e-06	1.2177392e-08
3.0900450032643737e-09	0.084588185	-0.03127158	-0.6457203	-0.6466939	-8e-06	1.0725782e-08
3.100000000000001e-09	0.08490996	-0.014709714	-0.6420114	-0.64297104	-8e-06	1.0766583e-08
3.1100135933369274e-09	0.094697125	-0.0015266641	-0.63792044	-0.6388446	-8e-06	1.2007596e-08
3.120025596417819e-09	0.10527265	-0.001912914	-0.63346183	-0.6343221	-8e-06	1.3348572e-08
3.130037016937878e-09	0.108798586	-0.013719673	-0.6287789	-0.6296024	-8e-06	1.3795661e-08
3.1400478785563984e-09	0.103559546	-0.025320109	-0.62419176	-0.6249538	-8e-06	1.3131352e-08
3.150000000000001e-09	0.09452362	-0.026770636	-0.61970514	-0.6204485	-8e-06	1.1985596e-08
3.1600153108075545e-09	0.088665746	-0.017777855	-0.6152096	-0.61592096	-8e-06	1.12428165e-08
3.1700265367053904e-09	0.09017281	-0.0072432645	-0.61066556	-0.61133784	-8e-06	1.1433913e-08
3.1800375869633914e-09	0.097288966	-0.003943395	-0.60602957	-0.60667264	-8e-06	1.23362405e-08
3.1900485545977136e-09	0.10416566	-0.009757131	-0.6012678	-0.6018595	-8e-06	1.3208205e-08
3.200000000000001e-09	0.10584692	-0.018928135	-0.5965327	-0.59709525	-8e-06	1.34213884e-08
3.2100157234670684e-09	0.1013629	-0.023780953	-0.591929	-0.59248215	-8e-06	1.2852816e-08
3.220026817575826e-09	0.09469266	-0.021102503	-0.5874784	-0.58801955	-8e-06	1.2007029e-08
3.2300378497566342e-09	0.09150018	-0.014460733	-0.58312255	-0.583651	-8e-06	1.1602224e-08
3.2400487280459208e-09	0.094224684	-0.010199564	-0.5788839	-0.57939947	-8e-06	1.194769e-08
3.250000000000001e-09	0.100359336	-0.011451462	-0.57467526	-0.575194	-8e-06	1.2725564e-08
3.2600153519544e-09	0.10491827	-0.016473161	-0.570321	-0.5708491	-8e-06	1.3303637e-08
3.270026290124642e-09	0.10441191	-0.021064706	-0.56595355	-0.56647193	-8e-06	1.3239431e-08
3.2800371944305794e-09	0.09970434	-0.021952754	-0.56170464	-0.56222606	-8e-06	1.264251e-08