# t (s)	mx ()	my ()	mz ()	m_z_yrange7_ ()	I_x (A)
0	0.1956591	-4.709503e-10	-0.43297568	-0.43352234	-8e-06
1.0003569017569644e-11	0.19565858	-3.6727528e-05	-0.4329821	-0.4335286	-8e-06
2.0021470930628432e-11	0.19565725	-7.154818e-05	-0.43299848	-0.43354505	-8e-06
3.001902251794106e-11	0.1956556	-0.00010379085	-0.43302426	-0.43357086	-8e-06
4.004638352096392e-11	0.19565383	-0.00013322335	-0.43305877	-0.43360546	-8e-06
5.002003588602755e-11	0.19565198	-0.00015921322	-0.43310088	-0.4336476	-8e-06
6.004270509977032e-11	0.1956497	-0.00018157465	-0.43314987	-0.43369666	-8e-06
7.001692281156594e-11	0.19564676	-0.00019968198	-0.43320414	-0.433751	-8e-06
8.003756953793654e-11	0.19564323	-0.00021322745	-0.4332629	-0.4338099	-8e-06
9.005200390448056e-11	0.1956397	-0.00022180958	-0.43332466	-0.4338717	-8e-06
1.0001452190570291e-10	0.19563638	-0.00022544296	-0.4333877	-0.43393475	-8e-06
1.1002978749008195e-10	0.19563326	-0.00022441676	-0.43345124	-0.43399844	-8e-06
1.2004587952360274e-10	0.19563018	-0.0002189396	-0.43351382	-0.43406105	-8e-06
1.3000950445560643e-10	0.19562705	-0.0002092505	-0.4335737	-0.43412104	-8e-06
1.4002421850166996e-10	0.19562393	-0.00019540009	-0.4336304	-0.43417782	-8e-06
1.5003639735642077e-10	0.19562101	-0.00017767824	-0.43368247	-0.43423	-8e-06
1.6005004798735834e-10	0.19561847	-0.00015653964	-0.43372902	-0.43427655	-8e-06
1.700129218351946e-10	0.19561642	-0.00013276841	-0.43376896	-0.43431652	-8e-06
1.8002938928513782e-10	0.19561487	-0.00010683931	-0.433802	-0.43434963	-8e-06
1.9004532694455967e-10	0.19561367	-7.944649e-05	-0.43382746	-0.4343751	-8e-06
2.000049874582048e-10	0.19561273	-5.120501e-05	-0.4338449	-0.4343925	-8e-06
2.1001454168779754e-10	0.19561209	-2.2339997e-05	-0.43385425	-0.43440196	-8e-06
2.200238516378728e-10	0.19561186	6.3889115e-06	-0.43385556	-0.4344032	-8e-06
2.3003345865712344e-10	0.1956122	3.4333687e-05	-0.43384883	-0.43439654	-8e-06
2.400436669061434e-10	0.19561309	6.087692e-05	-0.43383455	-0.43438217	-8e-06
2.500017290151752e-10	0.1956143	8.531029e-05	-0.4338132	-0.4343608	-8e-06
2.6001313820389305e-10	0.19561578	0.00010746379	-0.43378523	-0.43433285	-8e-06
2.7002508773339364e-10	0.19561748	0.00012690603	-0.43375146	-0.434299	-8e-06
2.8003749837989633e-10	0.19561942	0.00014336008	-0.4337127	-0.4342602	-8e-06
2.900502617035924e-10	0.1956216	0.00015648924	-0.4336699	-0.43421733	-8e-06
3.000104885268138e-10	0.19562404	0.0001659789	-0.43362424	-0.43417162	-8e-06
3.1002368119959396e-10	0.19562666	0.00017182197	-0.43357632	-0.43412367	-8e-06
3.200369063297261e-10	0.19562934	0.00017392806	-0.4335274	-0.43407467	-8e-06
3.300501519461469e-10	0.19563192	0.0001723791	-0.4334785	-0.43402568	-8e-06
3.4001056775363906e-10	0.19563438	0.00016736538	-0.4334309	-0.43397805	-8e-06
3.500235127071267e-10	0.19563672	0.00015903897	-0.43338504	-0.43393213	-8e-06
3.6003625641765067e-10	0.19563901	0.0001476116	-0.43334213	-0.43388915	-8e-06
3.7004886239965304e-10	0.1956412	0.00013336135	-0.43330288	-0.43384987	-8e-06
3.8000871696879416e-10	0.19564308	0.000116763644	-0.4332683	-0.43381524	-8e-06
3.9002123857811706e-10	0.19564466	9.804007e-05	-0.43323863	-0.4337855	-8e-06
4.0003363580759445e-10	0.19564591	7.773552e-05	-0.43321446	-0.43376133	-8e-06
4.10046014269774e-10	0.19564688	5.6330362e-05	-0.4331962	-0.43374306	-8e-06
4.2000557060883517e-10	0.19564755	3.441728e-05	-0.4331842	-0.43373102	-8e-06
4.3001762209324834e-10	0.19564785	1.2193374e-05	-0.4331784	-0.43372524	-8e-06
4.400297139058258e-10	0.19564784	-9.817194e-06	-0.43317878	-0.43372563	-8e-06
4.5004167824526146e-10	0.1956475	-3.1110503e-05	-0.43318528	-0.4337321	-8e-06
4.600008796035162e-10	0.19564688	-5.1116473e-05	-0.43319747	-0.4337443	-8e-06
4.70012808001809e-10	0.19564594	-6.967615e-05	-0.4332151	-0.433762	-8e-06
4.80024576722e-10	0.19564474	-8.636428e-05	-0.43323773	-0.43378466	-8e-06
4.900363196412693e-10	0.19564328	-0.0001008825	-0.43326467	-0.4338116	-8e-06
5.000481960881284e-10	0.19564164	-0.00011297485	-0.4332953	-0.43384224	-8e-06
5.100073676018379e-10	0.19563991	-0.00012239904	-0.43332863	-0.43387568	-8e-06
5.200191874460464e-10	0.19563802	-0.00012910018	-0.43336442	-0.43391147	-8e-06
5.300310584067188e-10	0.19563602	-0.00013296858	-0.43340155	-0.43394867	-8e-06
5.400430170072903e-10	0.19563402	-0.00013400278	-0.43343928	-0.43398643	-8e-06
5.500022520199999e-10	0.19563206	-0.0001322518	-0.43347663	-0.43402383	-8e-06
5.60014326107871e-10	0.1956301	-0.0001278112	-0.43351322	-0.4340605	-8e-06
5.700263494640329e-10	0.19562826	-0.00012082041	-0.43354806	-0.43409538	-8e-06
5.800384063170205e-10	0.19562657	-0.00011149089	-0.4335806	-0.43412793	-8e-06
5.900505462785086e-10	0.19562502	-0.00010006469	-0.4336101	-0.4341575	-8e-06
6.000099980523013e-10	0.19562364	-8.690846e-05	-0.43363595	-0.43418333	-8e-06
6.100222320277599e-10	0.19562247	-7.222117e-05	-0.43365794	-0.43420535	-8e-06
6.200344703642537e-10	0.19562152	-5.6376517e-05	-0.43367556	-0.43422303	-8e-06
6.300466815663053e-10	0.19562085	-3.9739254e-05	-0.43368858	-0.43423605	-8e-06
6.400062045852407e-10	0.19562045	-2.2744072e-05	-0.43369678	-0.43424422	-8e-06
6.500184384611431e-10	0.19562027	-5.6019535e-06	-0.4337002	-0.4342477	-8e-06
6.600305882040344e-10	0.19562033	1.1242525e-05	-0.43369886	-0.43424633	-8e-06
6.700427486264295e-10	0.19562063	2.7445098e-05	-0.43369287	-0.43424034	-8e-06
6.80002299980789e-10	0.19562118	4.2617234e-05	-0.43368253	-0.43423	-8e-06
6.900144681454389e-10	0.19562191	5.6653906e-05	-0.43366808	-0.43421552	-8e-06
7.000265864741434e-10	0.19562283	6.917647e-05	-0.43364987	-0.43419728	-8e-06
7.10038759211486e-10	0.19562398	7.996736e-05	-0.43362844	-0.43417585	-8e-06
7.200508406937622e-10	0.1956253	8.8841e-05	-0.4336043	-0.43415165	-8e-06
7.300102523949385e-10	0.19562669	9.5633986e-05	-0.43357816	-0.43412545	-8e-06
7.400222374686013e-10	0.19562814	0.00010031759	-0.43355033	-0.43409756	-8e-06
7.500343649899978e-10	0.19562964	0.00010281174	-0.43352154	-0.4340688	-8e-06
7.600464303351408e-10	0.19563116	0.00010314047	-0.43349242	-0.43403965	-8e-06
7.700057931143355e-10	0.19563268	0.000101336256	-0.43346378	-0.43401095	-8e-06
7.800178256828178e-10	0.19563417	9.74641e-05	-0.4334358	-0.43398297	-8e-06
7.900298551221902e-10	0.19563557	9.165399e-05	-0.43340933	-0.4339564	-8e-06
8.000419887943749e-10	0.1956369	8.407993e-05	-0.4333847	-0.43393183	-8e-06
8.100013424028467e-10	0.19563808	7.500613e-05	-0.43336266	-0.4339097	-8e-06
8.200133410371432e-10	0.1956391	6.455692e-05	-0.4333433	-0.43389034	-8e-06
8.300254035718852e-10	0.19563998	5.302029e-05	-0.4333271	-0.4338741	-8e-06
8.400375297518335e-10	0.19564067	4.0651958e-05	-0.43331426	-0.4338613	-8e-06
8.500496039516026e-10	0.19564119	2.7731436e-05	-0.43330505	-0.43385205	-8e-06
8.600089795452619e-10	0.19564143	1.4607936e-05	-0.43329957	-0.43384653	-8e-06
8.700210709693242e-10	0.19564153	1.4269793e-06	-0.4332977	-0.43384472	-8e-06
8.800331798779204e-10	0.19564141	-1.145822e-05	-0.43329957	-0.43384653	-8e-06
8.900452489886963e-10	0.19564113	-2.3813602e-05	-0.43330494	-0.4338519	-8e-06
9.000046536156159e-10	0.19564074	-3.5309968e-05	-0.4333136	-0.4338606	-8e-06
9.100167955045797e-10	0.19564013	-4.586208e-05	-0.4333254	-0.43387246	-8e-06
9.200289123151294e-10	0.19563934	-5.5246237e-05	-0.43334	-0.43388706	-8e-06
9.300410360567177e-10	0.1956384	-6.325898e-05	-0.43335703	-0.43390408	-8e-06
9.400004681831004e-10	0.19563739	-6.974303e-05	-0.43337595	-0.433923	-8e-06
9.500126080560298e-10	0.1956363	-7.4634314e-05	-0.43339652	-0.43394357	-8e-06
9.600247148705096e-10	0.19563518	-7.7856326e-05	-0.43341815	-0.43396527	-8e-06
9.700368384149365e-10	0.19563401	-7.941493e-05	-0.4334404	-0.4339876	-8e-06
9.800489568601165e-10	0.1956328	-7.9308025e-05	-0.43346286	-0.43401003	-8e-06
9.900083232394425e-10	0.19563167	-7.7578225e-05	-0.4334848	-0.43403205	-8e-06
1.0000203604563491e-09	0.19563052	-7.423966e-05	-0.43350616	-0.4340534	-8e-06
1.0100324273749656e-09	0.19562943	-6.945104e-05	-0.4335263	-0.43407357	-8e-06
1.0200445569467814e-09	0.19562846	-6.334375e-05	-0.4335448	-0.43409213	-8e-06
1.0300039744927143e-09	0.19562759	-5.6109486e-05	-0.43356138	-0.43410864	-8e-06
1.0400160583631877e-09	0.19562684	-4.785679e-05	-0.43357575	-0.43412313	-8e-06
1.0500281515520805e-09	0.1956262	-3.8805832e-05	-0.43358773	-0.43413508	-8e-06
1.0600402786733038e-09	0.19562572	-2.9169247e-05	-0.43359697	-0.43414432	-8e-06
1.0700523197528895e-09	0.1956254	-1.9143657e-05	-0.43360347	-0.43415082	-8e-06
1.0800117152566698e-09	0.1956252	-9.01022e-06	-0.43360707	-0.43415442	-8e-06
1.0900238146233243e-09	0.19562514	1.1072041e-06	-0.43360782	-0.43415523	-8e-06
1.1000358595244518e-09	0.19562523	1.0957129e-05	-0.43360582	-0.43415317	-8e-06
1.1100479373475662e-09	0.19562548	2.0349762e-05	-0.4336011	-0.43414843	-8e-06
1.1200074051981956e-09	0.19562587	2.90687e-05	-0.43359387	-0.43414122	-8e-06
1.1300194550227092e-09	0.19562638	3.7028938e-05	-0.43358427	-0.43413162	-8e-06
1.1400316057317786e-09	0.19562696	4.4024433e-05	-0.4335726	-0.43411994	-8e-06
1.150043764559873e-09	0.19562769	4.9938153e-05	-0.43355915	-0.43410647	-8e-06
1.1600030908232782e-09	0.19562846	5.4646243e-05	-0.4335443	-0.4340916	-8e-06
1.170015159441571e-09	0.19562933	5.816283e-05	-0.43352827	-0.43407553	-8e-06
1.1800272968278797e-09	0.19563021	6.0393722e-05	-0.43351147	-0.43405873	-8e-06
1.1900394197399024e-09	0.19563112	6.131443e-05	-0.43349427	-0.43404147	-8e-06
1.2000515516229946e-09	0.19563203	6.0931547e-05	-0.43347698	-0.43402418	-8e-06
1.2100108346865491e-09	0.19563292	5.9313832e-05	-0.43346018	-0.43400732	-8e-06
1.2200229923967415e-09	0.19563377	5.6511442e-05	-0.4334439	-0.43399104	-8e-06
1.2300350605559373e-09	0.1956346	5.2590076e-05	-0.43342862	-0.43397576	-8e-06
1.2400471940566434e-09	0.19563533	4.767524e-05	-0.43341458	-0.43396175	-8e-06
1.2500065738852406e-09	0.195636	4.192635e-05	-0.43340224	-0.43394932	-8e-06
1.2600186568351044e-09	0.19563657	3.5412635e-05	-0.43339157	-0.4339386	-8e-06
1.2700307357130678e-09	0.19563706	2.8324834e-05	-0.43338275	-0.4339299	-8e-06
1.2800428695463545e-09	0.1956374	2.0822596e-05	-0.43337613	-0.43392318	-8e-06
1.290002328489014e-09	0.19563763	1.3102779e-05	-0.4333716	-0.4339187	-8e-06
1.3000144290762277e-09	0.19563776	5.254628e-06	-0.4333693	-0.4339164	-8e-06
1.3100264553174923e-09	0.19563775	-2.5054555e-06	-0.4333692	-0.4339162	-8e-06
1.3200386449061843e-09	0.19563763	-1.0040189e-05	-0.4333712	-0.43391827	-8e-06
1.3300507805184815e-09	0.19563743	-1.7180737e-05	-0.4333753	-0.43392232	-8e-06
1.340010137487784e-09	0.19563718	-2.3761797e-05	-0.4333812	-0.4339283	-8e-06
1.3500222172947139e-09	0.19563675	-2.9728266e-05	-0.43338898	-0.43393606	-8e-06
1.360034348765635e-09	0.19563623	-3.4967117e-05	-0.43339825	-0.43394536	-8e-06
1.3700463503292385e-09	0.19563565	-3.9361552e-05	-0.4334089	-0.433956	-8e-06
1.3800058020871276e-09	0.19563504	-4.278913e-05	-0.43342054	-0.43396765	-8e-06
1.390017882996653e-09	0.19563441	-4.526303e-05	-0.433433	-0.4339802	-8e-06
1.4000299799987064e-09	0.19563371	-4.674723e-05	-0.43344605	-0.43399322	-8e-06
1.4100420910669189e-09	0.19563301	-4.724903e-05	-0.43345937	-0.43400654	-8e-06
1.4200014245304053e-09	0.1956323	-4.676819e-05	-0.4334725	-0.43401974	-8e-06
1.4300135029364442e-09	0.19563164	-4.5324727e-05	-0.4334855	-0.4340327	-8e-06
1.4400256562295076e-09	0.19563097	-4.2969503e-05	-0.43349788	-0.43404508	-8e-06
1.4500377625719275e-09	0.19563034	-3.9768456e-05	-0.43350944	-0.43405667	-8e-06
1.4600499199458445e-09	0.19562979	-3.5829897e-05	-0.43351996	-0.43406722	-8e-06
1.4700093021218475e-09	0.19562931	-3.128099e-05	-0.43352923	-0.4340765	-8e-06
1.4800213747962001e-09	0.19562888	-2.617683e-05	-0.43353716	-0.43408448	-8e-06
1.4900334529236973e-09	0.19562854	-2.0651642e-05	-0.4335436	-0.43409085	-8e-06
1.500045647958882e-09	0.19562829	-1.4812799e-05	-0.43354842	-0.4340957	-8e-06
1.5100049501375338e-09	0.1956281	-8.832201e-06	-0.4335515	-0.43409875	-8e-06
1.5200170067965222e-09	0.19562805	-2.7899096e-06	-0.4335529	-0.4341002	-8e-06
1.5300291151252379e-09	0.19562809	3.1709083e-06	-0.43355265	-0.43409994	-8e-06
1.5400412064748778e-09	0.1956282	8.914147e-06	-0.43355078	-0.4340981	-8e-06
1.550000566319263e-09	0.19562835	1.4288631e-05	-0.43354738	-0.43409464	-8e-06
1.5600127333705979e-09	0.19562858	1.9287298e-05	-0.43354246	-0.43408972	-8e-06
1.5700248485345226e-09	0.1956289	2.3785344e-05	-0.43353623	-0.4340835	-8e-06
1.5800370461987163e-09	0.1956293	2.7686696e-05	-0.43352887	-0.4340761	-8e-06
1.5900490762756883e-09	0.19562975	3.0918356e-05	-0.43352047	-0.4340678	-8e-06
1.6000084293510162e-09	0.19563022	3.3419103e-05	-0.4335114	-0.43405864	-8e-06
1.6100205426308414e-09	0.19563076	3.5179986e-05	-0.43350163	-0.4340489	-8e-06
1.6200327590449936e-09	0.1956313	3.615768e-05	-0.43349156	-0.43403876	-8e-06
1.6300447744618017e-09	0.1956318	3.6379497e-05	-0.43348134	-0.4340285	-8e-06
1.6400041765642693e-09	0.19563232	3.585533e-05	-0.4334712	-0.4340184	-8e-06
1.6500162601004509e-09	0.19563286	3.461108e-05	-0.43346134	-0.4340085	-8e-06
1.6600284263619639e-09	0.19563338	3.265899e-05	-0.43345192	-0.43399906	-8e-06
1.6700405259286725e-09	0.19563384	3.0073943e-05	-0.4334431	-0.43399027	-8e-06
1.680052629481212e-09	0.19563429	2.6937649e-05	-0.4334352	-0.43398237	-8e-06
1.6900119702416374e-09	0.19563465	2.3334174e-05	-0.4334283	-0.4339754	-8e-06
1.700024052725635e-09	0.19563493	1.9320265e-05	-0.4334224	-0.4339695	-8e-06
1.7100360734703567e-09	0.1956352	1.50108335e-05	-0.4334177	-0.4339648	-8e-06
1.7200482039324254e-09	0.19563536	1.0497953e-05	-0.43341425	-0.43396136	-8e-06
1.7300076359501534e-09	0.1956355	5.8746336e-06	-0.43341216	-0.43395925	-8e-06
1.740019664384672e-09	0.19563554	1.2211741e-06	-0.43341127	-0.43395844	-8e-06
1.7500317294438106e-09	0.1956355	-3.334328e-06	-0.43341172	-0.4339589	-8e-06
1.7600438766477864e-09	0.1956354	-7.725704e-06	-0.43341342	-0.43396053	-8e-06
1.7700032977551082e-09	0.19563526	-1.18215585e-05	-0.43341628	-0.43396342	-8e-06
1.780015457934812e-09	0.19563507	-1.559128e-05	-0.43342027	-0.43396735	-8e-06
1.7900275102525413e-09	0.1956348	-1.895151e-05	-0.4334252	-0.43397233	-8e-06
1.8000396196722364e-09	0.19563454	-2.186481e-05	-0.43343106	-0.4339782	-8e-06
1.8100517615769822e-09	0.19563419	-2.4261475e-05	-0.43343762	-0.43398476	-8e-06
1.820011168562732e-09	0.19563377	-2.6084052e-05	-0.43344474	-0.4339919	-8e-06
1.8300233235450843e-09	0.19563334	-2.732642e-05	-0.43345234	-0.43399948	-8e-06
1.8400353862187168e-09	0.19563295	-2.7967853e-05	-0.43346012	-0.4340073	-8e-06
1.8500474824548131e-09	0.19563253	-2.8018245e-05	-0.43346804	-0.43401524	-8e-06
1.8600068678607957e-09	0.19563214	-2.7491722e-05	-0.4334758	-0.43402296	-8e-06
1.870018928456375e-09	0.19563174	-2.642031e-05	-0.43348336	-0.43403056	-8e-06
1.880031015565152e-09	0.19563136	-2.4836976e-05	-0.4334905	-0.43403774	-8e-06
1.8900430908544694e-09	0.195631	-2.2764323e-05	-0.4334972	-0.4340444	-8e-06
1.900002523363881e-09	0.19563067	-2.028524e-05	-0.43350315	-0.43405038	-8e-06
1.91001461503457e-09	0.1956304	-1.7415741e-05	-0.43350834	-0.4340556	-8e-06
1.9200267145083346e-09	0.19563016	-1.4264142e-05	-0.43351272	-0.43405995	-8e-06
1.9300387985165187e-09	0.19562998	-1.091286e-05	-0.43351617	-0.43406337	-8e-06
1.9400508350427365e-09	0.19562988	-7.4045156e-06	-0.43351865	-0.43406588	-8e-06
1.9500103129938006e-09	0.19562979	-3.832358e-06	-0.43352002	-0.4340673	-8e-06
1.9600224205110728e-09	0.19562975	-2.5713885e-07	-0.4335205	-0.43406776	-8e-06
1.9700344769620425e-09	0.19562979	3.2401379e-06	-0.43351996	-0.43406722	-8e-06
1.980046501849586e-09	0.19562986	6.5956588e-06	-0.43351847	-0.43406573	-8e-06
1.990005907575616e-09	0.19563001	9.704872e-06	-0.43351611	-0.43406332	-8e-06
2.000018075668861e-09	0.19563018	1.2564483e-05	-0.43351287	-0.4340601	-8e-06
2.0100301565255633e-09	0.19563034	1.5077944e-05	-0.43350887	-0.4340561	-8e-06
2.0200423089296863e-09	0.19563061	1.7228303e-05	-0.43350422	-0.43405148	-8e-06
2.030001656372918e-09	0.1956309	1.8994602e-05	-0.4334991	-0.43404633	-8e-06
2.04001372221874e-09	0.19563118	2.0306434e-05	-0.43349352	-0.43404078	-8e-06
2.0500258900189006e-09	0.1956315	2.1174395e-05	-0.43348765	-0.43403488	-8e-06
2.0600378931576253e-09	0.19563182	2.1586477e-05	-0.43348163	-0.43402883	-8e-06
2.0700499676319357e-09	0.19563213	2.1541266e-05	-0.43347552	-0.43402275	-8e-06
2.0800093814131035e-09	0.19563244	2.1042059e-05	-0.4334696	-0.43401682	-8e-06
2.090021457577394e-09	0.19563276	2.0143485e-05	-0.43346384	-0.434011	-8e-06
2.100033555414952e-09	0.19563305	1.8853552e-05	-0.4334584	-0.43400553	-8e-06
2.110045669486861e-09	0.19563329	1.7179324e-05	-0.43345335	-0.43400055	-8e-06
2.120005147894957e-09	0.19563353	1.519474e-05	-0.43344882	-0.43399602	-8e-06
2.1300172299063598e-09	0.19563377	1.295961e-05	-0.43344498	-0.43399215	-8e-06
2.1400292999797956e-09	0.19563392	1.0507371e-05	-0.43344176	-0.4339889	-8e-06
2.1500414463083146e-09	0.19563407	7.875231e-06	-0.43343928	-0.4339864	-8e-06
2.160000878949562e-09	0.19563416	5.171034e-06	-0.43343756	-0.4339847	-8e-06
2.1700129278258902e-09	0.19563417	2.4126782e-06	-0.43343657	-0.4339837	-8e-06
2.180025023954045e-09	0.19563417	-3.334328e-07	-0.43343636	-0.4339835	-8e-06
2.1900371382549133e-09	0.19563416	-3.0041917e-06	-0.43343693	-0.4339841	-8e-06
2.200049268833779e-09	0.19563411	-5.5430846e-06	-0.43343818	-0.43398532	-8e-06
2.2100086427114034e-09	0.19563401	-7.894304e-06	-0.43344015	-0.43398732	-8e-06
2.2200206721461584e-09	0.19563387	-1.0063736e-05	-0.43344274	-0.4339899	-8e-06
2.230032768879283e-09	0.19563372	-1.1962373e-05	-0.43344587	-0.433993	-8e-06
2.2400448963550455e-09	0.1956335	-1.3570903e-05	-0.43344954	-0.4339967	-8e-06
2.250004307247256e-09	0.1956333	-1.4856127e-05	-0.43345356	-0.4340007	-8e-06
2.2600164473782137e-09	0.19563308	-1.579214e-05	-0.43345785	-0.43400502	-8e-06
2.2700285796128337e-09	0.19563283	-1.6398018e-05	-0.4334624	-0.43400958	-8e-06
2.2800406706750656e-09	0.19563258	-1.6662692e-05	-0.43346703	-0.43401423	-8e-06
2.2900000527246665e-09	0.19563235	-1.6579805e-05	-0.43347168	-0.43401885	-8e-06
2.3000121518028534e-09	0.19563214	-1.6155478e-05	-0.43347627	-0.43402344	-8e-06
2.3100242593268034e-09	0.1956319	-1.5390655e-05	-0.43348065	-0.43402785	-8e-06
2.3200363724869085e-09	0.19563162	-1.4342791e-05	-0.4334848	-0.434032	-8e-06
2.3300485237423254e-09	0.19563138	-1.3036375e-05	-0.43348858	-0.4340358	-8e-06
2.3400078000315687e-09	0.19563127	-1.1468111e-05	-0.43349198	-0.4340392	-8e-06
2.3500198696110363e-09	0.19563116	-9.706756e-06	-0.4334949	-0.43404207	-8e-06
2.360031914713538e-09	0.19563101	-7.795405e-06	-0.43349725	-0.43404448	-8e-06
2.3700440511671103e-09	0.19563091	-5.770554e-06	-0.43349907	-0.43404633	-8e-06
2.3800034349715224e-09	0.19563082	-3.6948404e-06	-0.43350032	-0.43404755	-8e-06
2.390015614646335e-09	0.19563079	-1.5656742e-06	-0.43350103	-0.4340482	-8e-06
2.400027720507225e-09	0.19563079	5.5195375e-07	-0.4335011	-0.4340483	-8e-06
2.4100397268473573e-09	0.19563082	2.6109483e-06	-0.43350056	-0.4340478	-8e-06
2.4200518533109743e-09	0.19563088	4.54938e-06	-0.43349952	-0.43404672	-8e-06
2.430011254290531e-09	0.19563098	6.336636e-06	-0.4334979	-0.43404514	-8e-06
2.440023400478866e-09	0.19563107	7.968008e-06	-0.43349585	-0.43404308	-8e-06
2.4500354502980755e-09	0.19563118	9.386981e-06	-0.4334934	-0.4340406	-8e-06
2.4600475734384568e-09	0.19563133	1.0584136e-05	-0.43349054	-0.43403777	-8e-06
2.4700069444308155e-09	0.19563147	1.1549114e-05	-0.43348742	-0.43403465	-8e-06
2.4800190783447052e-09	0.1956317	1.2250359e-05	-0.43348405	-0.43403125	-8e-06
2.4900311014983515e-09	0.19563188	1.2672094e-05	-0.4334805	-0.43402776	-8e-06
2.5000431991890886e-09	0.19563209	1.2816441e-05	-0.43347695	-0.43402416	-8e-06
2.510002652068447e-09	0.1956323	1.2709535e-05	-0.4334734	-0.4340206	-8e-06
2.5200148363143896e-09	0.19563244	1.23356e-05	-0.4334699	-0.4340171	-8e-06
2.5300269301827788e-09	0.19563256	1.17153595e-05	-0.43346655	-0.43401372	-8e-06
2.540039008999717e-09	0.19563273	1.087801e-05	-0.4334634	-0.4340106	-8e-06
2.550051078123835e-09	0.19563292	9.84239e-06	-0.43346053	-0.4340077	-8e-06
2.5600104626055417e-09	0.19563314	8.645235e-06	-0.43345797	-0.43400517	-8e-06
2.570022497429608e-09	0.1956332	7.264408e-06	-0.4334558	-0.43400297	-8e-06
2.580034582117245e-09	0.19563326	5.750303e-06	-0.433454	-0.43400115	-8e-06
2.5900466635131525e-09	0.19563334	4.1646135e-06	-0.43345267	-0.43399984	-8e-06
2.600006068695991e-09	0.19563338	2.5812785e-06	-0.4334517	-0.4339989	-8e-06
2.610018117944067e-09	0.19563341	9.621514e-07	-0.43345132	-0.4339985	-8e-06
2.6200302872943534e-09	0.19563341	-6.480276e-07	-0.4334513	-0.4339985	-8e-06
2.6300424195541184e-09	0.19563341	-2.2214724e-06	-0.4334518	-0.43399894	-8e-06
2.6400018227533098e-09	0.19563337	-3.714856e-06	-0.4334527	-0.43399984	-8e-06
2.6500139251376197e-09	0.19563329	-5.0883823e-06	-0.43345395	-0.43400112	-8e-06
2.6600259944791513e-09	0.19563319	-6.307908e-06	-0.4334556	-0.43400273	-8e-06
2.670038107337049e-09	0.19563308	-7.3545953e-06	-0.43345755	-0.43400472	-8e-06
2.680050146938281e-09	0.19563298	-8.255288e-06	-0.43345982	-0.43400696	-8e-06
2.690009565781683e-09	0.19563285	-8.965952e-06	-0.4334622	-0.43400937	-8e-06
2.700021667733975e-09	0.19563271	-9.468456e-06	-0.4334648	-0.434012	-8e-06
2.710033780080959e-09	0.19563256	-9.775515e-06	-0.4334675	-0.43401474	-8e-06
2.720045850805739e-09	0.19563241	-9.861699e-06	-0.43347028	-0.43401748	-8e-06
2.730005220577935e-09	0.19563226	-9.727949e-06	-0.43347308	-0.43402025	-8e-06
2.740017399519058e-09	0.19563213	-9.397342e-06	-0.43347576	-0.4340229	-8e-06
2.7500294599110276e-09	0.195632	-8.896722e-06	-0.4334783	-0.43402553	-8e-06
2.7600415704641655e-09	0.19563188	-8.235036e-06	-0.43348068	-0.43402788	-8e-06
2.770000962615833e-09	0.19563177	-7.416525e-06	-0.4334829	-0.43403006	-8e-06
2.7800130756198477e-09	0.19563164	-6.4524897e-06	-0.43348476	-0.434032	-8e-06
2.790025142007961e-09	0.19563153	-5.3839035e-06	-0.4334864	-0.4340336	-8e-06
2.8000372639387896e-09	0.19563147	-4.214534e-06	-0.4334877	-0.43403488	-8e-06
2.8100493317506727e-09	0.19563144	-2.9933599e-06	-0.43348867	-0.4340359	-8e-06
2.820008753988531e-09	0.19563143	-1.7627669e-06	-0.43348932	-0.4340365	-8e-06
2.830020902598216e-09	0.19563141	-5.100392e-07	-0.4334896	-0.4340368	-8e-06
2.840033031586368e-09	0.19563138	7.243215e-07	-0.4334895	-0.4340367	-8e-06
2.8500451023957092e-09	0.1956314	1.9195934e-06	-0.43348908	-0.4340363	-8e-06
2.8600044275806135e-09	0.19563144	3.044458e-06	-0.43348837	-0.43403557	-8e-06
2.8700165427645975e-09	0.1956315	4.090203e-06	-0.43348733	-0.43403453	-8e-06
2.880028680651781e-09	0.1956316	5.0085564e-06	-0.433486	-0.43403324	-8e-06
2.8900408194466753e-09	0.19563168	5.8006945e-06	-0.43348452	-0.4340317	-8e-06
2.900000198392884e-09	0.19563176	6.458612e-06	-0.43348277	-0.43403	-8e-06
2.9100122549170956e-09	0.19563185	6.9684156e-06	-0.43348083	-0.43402806	-8e-06
2.9200243375777057e-09	0.19563194	7.331283e-06	-0.4334788	-0.43402603	-8e-06
2.9300364876756488e-09	0.19563209	7.5392077e-06	-0.4334767	-0.43402395	-8e-06
2.9400484734617004e-09	0.19563219	7.5851253e-06	-0.4334746	-0.4340218	-8e-06
2.9500079710147336e-09	0.19563231	7.454201e-06	-0.43347248	-0.43401968	-8e-06
2.960020077204655e-09	0.19563241	7.18105e-06	-0.43347046	-0.4340176	-8e-06
2.9700321277270228e-09	0.19563253	6.7675555e-06	-0.43346852	-0.4340157	-8e-06
2.98004418858903e-09	0.1956326	6.232085e-06	-0.4334667	-0.43401387	-8e-06
2.9900035746246677e-09	0.19563265	5.583351e-06	-0.43346506	-0.43401223	-8e-06
3e-09	0.19563274	4.8300662e-06	-0.4334636	-0.43401083	-8e-06
3.0100231032544516e-09	0.19062601	-0.0038728106	-0.43212572	-0.43266168	-8e-06
3.0200333868929764e-09	0.18041052	-0.005260712	-0.4306429	-0.4311558	-8e-06
3.030046472501298e-09	0.17502685	-0.0035772338	-0.429145	-0.42969722	-8e-06
3.040006114931529e-09	0.17806129	0.0013049175	-0.42749637	-0.42803478	-8e-06
3.0500175009159336e-09	0.18532468	0.005257723	-0.425459	-0.42598373	-8e-06
3.0600290026504016e-09	0.18959723	0.006390709	-0.42307732	-0.42365283	-8e-06
3.0700405595651204e-09	0.18819155	0.0041919113	-0.42041942	-0.42090306	-8e-06
3.080051999592329e-09	0.18356992	5.2926334e-05	-0.41761068	-0.41812158	-8e-06
3.090010404048527e-09	0.17990223	-0.00035678205	-0.4148393	-0.41535655	-8e-06
3.10002135602949e-09	0.17969228	0.004712413	-0.41165873	-0.41217053	-8e-06
3.110032401019716e-09	0.18228585	0.010507484	-0.40820256	-0.40874353	-8e-06
3.1200433465755485e-09	0.18544315	0.011872732	-0.40466756	-0.4051474	-8e-06
3.1300015872967146e-09	0.18704394	0.007851709	-0.40083712	-0.40132287	-8e-06
3.1400126846131926e-09	0.18578117	0.0039262446	-0.39683536	-0.3973149	-8e-06
3.1500237632253663e-09	0.1827164	0.0052081645	-0.39272356	-0.39321145	-8e-06
3.1600348098360805e-09	0.18021578	0.010182309	-0.38840175	-0.38890362	-8e-06
3.1700460796410108e-09	0.18050686	0.013884155	-0.38389277	-0.38435555	-8e-06
3.180004682119764e-09	0.18342113	0.013344809	-0.37919042	-0.37964416	-8e-06
3.190015785397804e-09	0.18615489	0.01089298	-0.37428272	-0.37473434	-8e-06
3.200026884326247e-09	0.18627055	0.010037531	-0.36921293	-0.36966372	-8e-06
3.210038151694979e-09	0.18368025	0.011521969	-0.3640057	-0.36445978	-8e-06
3.2200492961571733e-09	0.18070163	0.013768373	-0.35861757	-0.35905418	-8e-06
3.230007728323413e-09	0.18005854	0.015148577	-0.3530449	-0.35346588	-8e-06
3.2400188421893593e-09	0.18221325	0.015570029	-0.3473114	-0.347729	-8e-06
3.2500299203307703e-09	0.18504521	0.015580673	-0.3414336	-0.34184763	-8e-06
3.260041067799822e-09	0.18577299	0.0154481605	-0.33536756	-0.33577573	-8e-06
3.2700522236547646e-09	0.18368155	0.015653642	-0.32912225	-0.3295218	-8e-06
3.2800107206573336e-09	0.18094817	0.01650198	-0.32275116	-0.3231412	-8e-06
3.2900218559036794e-09	0.18012884	0.01759619	-0.3162419	-0.31662062	-8e-06
3.300033042704951e-09	0.18172188	0.018454345	-0.30965215	-0.3100261	-8e-06
3.310044336115638e-09	0.1838888	0.018910743	-0.30291164	-0.30328396	-8e-06
3.320002923194366e-09	0.1845209	0.018987482	-0.29601523	-0.2963777	-8e-06
3.3300142604423755e-09	0.18326372	0.018833185	-0.2889673	-0.2893171	-8e-06
3.340025575551237e-09	0.18143792	0.018861251	-0.28188524	-0.28222686	-8e-06
3.3500368533553307e-09	0.18066771	0.019397883	-0.27475965	-0.27509758	-8e-06
3.3600481290140767e-09	0.18143043	0.020244334	-0.26755705	-0.26788938	-8e-06
3.3700068224370444e-09	0.18281299	0.020795438	-0.26030594	-0.26062804	-8e-06
3.3800182020061056e-09	0.1835852	0.020698365	-0.25294632	-0.25325692	-8e-06
3.3900295489708918e-09	0.18318541	0.02022515	-0.24555436	-0.24585548	-8e-06
3.400040965532557e-09	0.18208349	0.019952068	-0.23815675	-0.23845077	-8e-06
3.410052312782798e-09	0.18127212	0.020212201	-0.23076282	-0.23104917	-8e-06
3.4200110807571845e-09	0.18140596	0.020774392	-0.22340691	-0.22368339	-8e-06
3.4300226300114205e-09	0.1823267	0.021077517	-0.21599445	-0.21625891	-8e-06
3.440034066613329e-09	0.18320455	0.020851163	-0.20855547	-0.20880754	-8e-06
3.4500454770332785e-09	0.18327868	0.020398036	-0.2011147	-0.20135643	-8e-06
3.4600042962164678e-09	0.18257105	0.02018436	-0.19374639	-0.19397908	-8e-06
3.4700158860881633e-09	0.18179376	0.02030394	-0.18637492	-0.18659687	-8e-06
3.480027473037338e-09	0.18166155	0.02049249	-0.1790167	-0.17922615	-8e-06
3.490039126043976e-09	0.18224843	0.020529851	-0.17165509	-0.17185207	-8e-06
3.50005074869575e-09	0.18300524	0.020406373	-0.16429567	-0.16448095	-8e-06
3.510009665226799e-09	0.18328246	0.020223614	-0.15699889	-0.15717334	-8e-06
3.5200213459349177e-09	0.18288285	0.020068469	-0.14969662	-0.14986047	-8e-06
3.5300330200269395e-09	0.18222056	0.019985734	-0.14241369	-0.14256644	-8e-06
3.5400447854267133e-09	0.18193528	0.019983945	-0.1351375	-0.13527843	-8e-06
3.5500039415293404e-09	0.18227275	0.020016367	-0.12790935	-0.1280388	-8e-06
3.560015737406467e-09	0.18288504	0.020027597	-0.120658286	-0.12077767	-8e-06
3.5700275583748207e-09	0.18319272	0.019996844	-0.11341669	-0.1135267	-8e-06
3.5800393801056484e-09	0.18295214	0.019911334	-0.1061755	-0.10627529	-8e-06
3.5900513388629044e-09	0.18243876	0.019803133	-0.09893476	-0.099024005	-8e-06
3.6000106042726654e-09	0.18213272	0.01976666	-0.09173854	-0.09181842	-8e-06
3.6100225063407657e-09	0.18227004	0.019846713	-0.084509514	-0.0845811	-8e-06
3.6200345924667886e-09	0.18267056	0.019966027	-0.07727445	-0.077337615	-8e-06
3.630046576217806e-09	0.18293262	0.020009084	-0.07002544	-0.07007969	-8e-06
3.6400059847615717e-09	0.18282099	0.019951735	-0.06280483	-0.06285052	-8e-06
3.6500181319338138e-09	0.18245612	0.01987289	-0.05554523	-0.055583246	-8e-06
3.660030248890196e-09	0.18216439	0.019860625	-0.048288476	-0.048319302	-8e-06
3.670042449904307e-09	0.18216628	0.019916432	-0.04103284	-0.041056115	-8e-06
3.6800019923409746e-09	0.18240409	0.01996366	-0.033815347	-0.033830665	-8e-06
3.6900142648772286e-09	0.18263231	0.019940551	-0.026562773	-0.026570251	-8e-06
3.7000266137359837e-09	0.18263805	0.019848045	-0.01932088	-0.019320885	-8e-06
3.7100389856946415e-09	0.18242498	0.019723196	-0.012099616	-0.012092037	-8e-06
3.720051337088848e-09	0.18219392	0.019596083	-0.0049091782	-0.0048935227	-8e-06
3.730011132417496e-09	0.18214962	0.019470615	0.0022051258	0.002229152	-8e-06
3.740023639389674e-09	0.18231882	0.01932875	0.009314317	0.009346709	-8e-06
3.7500361881066835e-09	0.18254548	0.019151976	0.016377067	0.016417807	-8e-06
3.760048708329824e-09	0.18264537	0.0189279	0.02338532	0.02343462	-8e-06
3.770008690020101e-09	0.18256888	0.018659124	0.030290645	0.030348625	-8e-06
3.780021484314063e-09	0.18242642	0.018363178	0.03715589	0.037222426	-8e-06
3.790034120573196e-09	0.18238279	0.01806665	0.043940302	0.04401512	-8e-06
3.800046965942859e-09	0.18250802	0.017775403	0.05064434	0.050727375	-8e-06
3.810007094628434e-09	0.18271717	0.01747748	0.05723183	0.057322986	-8e-06
3.820020053924405e-09	0.18285894	0.017156888	0.063767806	0.063866965	-8e-06
3.830033100790077e-09	0.18285204	0.016818156	0.07021258	0.07031939	-8e-06
3.840046082111961e-09	0.1827568	0.016478596	0.07656532	0.076679476	-8e-06
3.850006336110371e-09	0.18270619	0.016154079	0.08279548	0.082916774	-8e-06
3.860019554637629e-09	0.18277802	0.015839312	0.08897131	0.08909976	-8e-06