# t (s)	mx ()	my ()	mz ()	m_z_yrange7_ ()	I_x (A)	Ku1 (J/m3)
0	0.20439617	-9.419006e-10	-0.40621445	-0.4067413	-8e-06	445947.88
1.0020627912212443e-11	0.20439781	9.507921e-05	-0.40619797	-0.40672514	-8e-06	445947.88
2.0010603958716437e-11	0.20440164	0.0001869018	-0.40615588	-0.40668282	-8e-06	445947.88
3.002591435350893e-11	0.20440565	0.00027466926	-0.40608838	-0.40661532	-8e-06	445947.9
4.000598430252363e-11	0.2044096	0.00035756617	-0.40599734	-0.40652415	-8e-06	445947.9
5.0034075540460445e-11	0.20441335	0.00043712615	-0.4058829	-0.4064096	-8e-06	445947.88
6.000620601964186e-11	0.20441826	0.000512575	-0.40574762	-0.40627423	-8e-06	445947.88
7.003013646843262e-11	0.20442513	0.00058351166	-0.40559158	-0.4061179	-8e-06	445947.9
8.000278572870419e-11	0.20443392	0.0006481123	-0.40541762	-0.4059438	-8e-06	445947.9
9.002172172953519e-11	0.20444372	0.00070652337	-0.40522605	-0.40575194	-8e-06	445947.88
1.0004249096462794e-10	0.20445392	0.0007582448	-0.405019	-0.4055447	-8e-06	445947.88
1.1001210902251116e-10	0.20446362	0.00080306345	-0.4047997	-0.40532508	-8e-06	445947.88
1.200284136429001e-10	0.20447326	0.00084185187	-0.4045677	-0.4050928	-8e-06	445947.9
1.3003938337836661e-10	0.20448357	0.0008746705	-0.40432602	-0.4048509	-8e-06	445947.88
1.4005059435739242e-10	0.20449512	0.0009010127	-0.40407646	-0.40460104	-8e-06	445947.88
1.500094829407244e-10	0.20450763	0.00091997924	-0.40382227	-0.40434656	-8e-06	445947.88
1.600219154111329e-10	0.20452055	0.00093171437	-0.40356264	-0.40408662	-8e-06	445947.88
1.7003549809396393e-10	0.20453303	0.0009364479	-0.40330085	-0.4038245	-8e-06	445947.88
1.8004999021138096e-10	0.20454478	0.00093462766	-0.4030387	-0.40356207	-8e-06	445947.88
1.9001221529084316e-10	0.2045562	0.0009266891	-0.40277946	-0.40330252	-8e-06	445947.9
2.0002703025632147e-10	0.20456779	0.0009129371	-0.40252212	-0.40304485	-8e-06	445947.88
2.1004145283662667e-10	0.20457977	0.00089336204	-0.40226978	-0.40279227	-8e-06	445947.88
2.2000262142268645e-10	0.20459186	0.00086785166	-0.40202537	-0.40254757	-8e-06	445947.88
2.3001591150323329e-10	0.20460358	0.00083632197	-0.40178785	-0.40230975	-8e-06	445947.88
2.400288093958921e-10	0.20461445	0.00079954404	-0.40155998	-0.40208164	-8e-06	445947.88
2.500416363458609e-10	0.20462433	0.0007582568	-0.40134314	-0.4018645	-8e-06	445947.88
2.6000173219471855e-10	0.20463343	0.0007131779	-0.4011395	-0.4016607	-8e-06	445947.88
2.700145476967755e-10	0.20464218	0.00066415104	-0.40094826	-0.40146923	-8e-06	445947.88
2.800275415027873e-10	0.20465077	0.000611658	-0.40077138	-0.40129215	-8e-06	445947.88
2.900406118992329e-10	0.20465893	0.0005558946	-0.40060982	-0.4011304	-8e-06	445947.9
3.000010378568878e-10	0.20466617	0.0004975632	-0.40046507	-0.40098548	-8e-06	445947.88
3.100142964655323e-10	0.20467228	0.00043670888	-0.40033627	-0.40085652	-8e-06	445947.9
3.2002777335983246e-10	0.20467722	0.00037434755	-0.40022466	-0.4007448	-8e-06	445947.88
3.300412824525301e-10	0.20468129	0.00031101037	-0.40013075	-0.40065083	-8e-06	445947.88
3.400021909165622e-10	0.20468482	0.00024738547	-0.40005508	-0.40057504	-8e-06	445947.88
3.5001597179720196e-10	0.20468782	0.00018309793	-0.39999697	-0.40051687	-8e-06	445947.88
3.6002989931784826e-10	0.20469013	0.000118809454	-0.3999569	-0.40047675	-8e-06	445947.88
3.7004381876203504e-10	0.20469137	5.4942473e-05	-0.3999347	-0.40045455	-8e-06	445947.88
3.8000503117993794e-10	0.20469147	-7.6397555e-06	-0.39993024	-0.40045005	-8e-06	445947.9
3.9001882792090947e-10	0.20469052	-6.901211e-05	-0.3999429	-0.40046278	-8e-06	445947.9
4.0003256073221505e-10	0.20468895	-0.00012836527	-0.39997247	-0.40049237	-8e-06	445947.88
4.1004635472484586e-10	0.20468684	-0.00018541077	-0.4000183	-0.40053824	-8e-06	445947.88
4.2000731529346043e-10	0.20468418	-0.00023973348	-0.4000794	-0.4005994	-8e-06	445947.88
4.3002093346549896e-10	0.20468085	-0.00029168423	-0.40015554	-0.40067565	-8e-06	445947.88
4.4003436046320823e-10	0.20467667	-0.0003406035	-0.4002457	-0.40076593	-8e-06	445947.9
4.5004792128623685e-10	0.20467171	-0.00038610198	-0.40034896	-0.4008693	-8e-06	445947.9
4.6000869459394115e-10	0.20466612	-0.00042761155	-0.40046364	-0.4009841	-8e-06	445947.9
4.700221750501852e-10	0.20466007	-0.00046536291	-0.4005899	-0.4011105	-8e-06	445947.88
4.800356120126563e-10	0.20465375	-0.0004990274	-0.40072608	-0.40124688	-8e-06	445947.88
4.900490481226222e-10	0.20464718	-0.000528616	-0.400871	-0.40139198	-8e-06	445947.88
5.000097925335446e-10	0.20464027	-0.0005539416	-0.40102267	-0.4015438	-8e-06	445947.9
5.1002314031097e-10	0.20463288	-0.0005750941	-0.4011815	-0.40170282	-8e-06	445947.9
5.200365482030113e-10	0.20462514	-0.0005917617	-0.40134546	-0.40186697	-8e-06	445947.9
5.300498910422571e-10	0.20461722	-0.00060389156	-0.40151328	-0.40203497	-8e-06	445947.88
5.40010548347408e-10	0.20460926	-0.0006114795	-0.40168285	-0.40220472	-8e-06	445947.88
5.500238929069565e-10	0.20460135	-0.0006147182	-0.40185472	-0.4023768	-8e-06	445947.9
5.600372053376486e-10	0.20459355	-0.0006137236	-0.40202674	-0.40254903	-8e-06	445947.9
5.70050607728452e-10	0.20458573	-0.0006086081	-0.40219775	-0.40272027	-8e-06	445947.88
5.800113155745402e-10	0.20457798	-0.0005994839	-0.40236574	-0.40288845	-8e-06	445947.9
5.900247814713386e-10	0.20457026	-0.0005862926	-0.40253142	-0.40305427	-8e-06	445947.88
6.000382117448739e-10	0.20456272	-0.00056925503	-0.40269265	-0.4032157	-8e-06	445947.9
6.10051665592259e-10	0.20455547	-0.00054863637	-0.40284854	-0.4033718	-8e-06	445947.9
6.200124458225401e-10	0.2045487	-0.000524811	-0.40299734	-0.40352076	-8e-06	445947.88
6.300259960453535e-10	0.20454231	-0.00049779913	-0.4031397	-0.4036633	-8e-06	445947.88
6.400395033607071e-10	0.20453624	-0.00046796727	-0.403274	-0.40379772	-8e-06	445947.9
6.500002268590939e-10	0.20453046	-0.00043572672	-0.40339887	-0.4039227	-8e-06	445947.9
6.600136884720154e-10	0.20452502	-0.00040098027	-0.40351486	-0.40403888	-8e-06	445947.9
6.700271521006126e-10	0.20452008	-0.0003641543	-0.40362084	-0.40414497	-8e-06	445947.9
6.800407033203833e-10	0.20451574	-0.00032558158	-0.40371615	-0.4042404	-8e-06	445947.88
6.900015434652729e-10	0.20451199	-0.00028581126	-0.40380004	-0.40432435	-8e-06	445947.88
7.000150291516904e-10	0.20450869	-0.00024478065	-0.40387297	-0.4043974	-8e-06	445947.9
7.100284935504551e-10	0.2045059	-0.00020298711	-0.40393433	-0.4044588	-8e-06	445947.88
7.200418964011407e-10	0.20450361	-0.0001606661	-0.40398383	-0.40450835	-8e-06	445947.88
7.300027686212457e-10	0.20450182	-0.000118362994	-0.40402126	-0.40454584	-8e-06	445947.88
7.400162343784923e-10	0.20450059	-7.5917655e-05	-0.40404707	-0.40457165	-8e-06	445947.88
7.500296416037929e-10	0.20449993	-3.3853317e-05	-0.40406102	-0.40458566	-8e-06	445947.88
7.600430502787085e-10	0.2044999	7.5060057e-06	-0.40406334	-0.40458798	-8e-06	445947.88
7.700037846608302e-10	0.20450042	4.7668644e-05	-0.40405434	-0.40457892	-8e-06	445947.88
7.800171798658427e-10	0.20450132	8.679779e-05	-0.40403423	-0.4045588	-8e-06	445947.9
7.900306966464655e-10	0.20450261	0.00012444696	-0.40400338	-0.40452793	-8e-06	445947.88
8.000441221294216e-10	0.20450446	0.00016043815	-0.4039623	-0.40448678	-8e-06	445947.9
8.10004865795236e-10	0.20450674	0.00019438473	-0.40391174	-0.4044361	-8e-06	445947.88
8.200182985713463e-10	0.20450953	0.00022641971	-0.40385172	-0.4043761	-8e-06	445947.88
8.300317407605205e-10	0.20451273	0.00025615882	-0.40378314	-0.4043074	-8e-06	445947.88
8.400450481039304e-10	0.2045163	0.00028343484	-0.40370667	-0.40423086	-8e-06	445947.9
8.500058338582705e-10	0.20452014	0.00030798218	-0.40362343	-0.40414754	-8e-06	445947.88
8.600193836662728e-10	0.20452425	0.00032998002	-0.40353334	-0.40405735	-8e-06	445947.88
8.700327645785539e-10	0.2045286	0.00034924637	-0.40343755	-0.40396142	-8e-06	445947.88
8.800462607907822e-10	0.20453323	0.00036568253	-0.40333688	-0.40386063	-8e-06	445947.88
8.900070206554298e-10	0.20453809	0.00037916348	-0.4032327	-0.40375632	-8e-06	445947.88
9.000204276572854e-10	0.20454317	0.00038976246	-0.40312463	-0.40364814	-8e-06	445947.88
9.100338836291718e-10	0.20454831	0.00039738644	-0.40301415	-0.40353748	-8e-06	445947.88
9.200473981601844e-10	0.20455348	0.0004020738	-0.40290198	-0.40342525	-8e-06	445947.9
9.300081261774418e-10	0.20455869	0.00040387354	-0.40278965	-0.40331277	-8e-06	445947.88
9.400215008152875e-10	0.2045639	0.0004028942	-0.40267667	-0.40319964	-8e-06	445947.88
9.500349921634365e-10	0.20456913	0.00039916567	-0.40256447	-0.40308732	-8e-06	445947.88
9.600485302350066e-10	0.20457432	0.00039274144	-0.40245375	-0.4029765	-8e-06	445947.88
9.700093219640673e-10	0.20457937	0.00038375243	-0.40234593	-0.4028685	-8e-06	445947.88
9.800227696421404e-10	0.20458433	0.00037224946	-0.4022404	-0.40276292	-8e-06	445947.88
9.900362317435577e-10	0.20458905	0.00035843224	-0.40213856	-0.4026609	-8e-06	445947.88
1.0000496621454176e-09	0.20459361	0.00034245622	-0.4020409	-0.40256315	-8e-06	445947.9
1.0100103957606727e-09	0.20459792	0.0003245794	-0.4019486	-0.4024707	-8e-06	445947.9
1.0200238521581506e-09	0.20460205	0.0003047816	-0.40186107	-0.40238315	-8e-06	445947.9
1.0300372968066856e-09	0.20460588	0.00028329378	-0.40177944	-0.40230143	-8e-06	445947.9
1.0400507407734523e-09	0.20460941	0.00026027914	-0.4017041	-0.40222597	-8e-06	445947.88
1.0500114907269352e-09	0.2046126	0.00023609938	-0.40163577	-0.40215755	-8e-06	445947.88
1.0600250070432626e-09	0.20461552	0.00021072858	-0.40157402	-0.40209576	-8e-06	445947.88
1.0700384961370673e-09	0.20461805	0.00018448205	-0.40151954	-0.40204123	-8e-06	445947.9
1.0800519435369403e-09	0.20462026	0.00015753852	-0.4014726	-0.4019942	-8e-06	445947.88
1.0900127327541169e-09	0.2046221	0.00013023189	-0.40143344	-0.40195495	-8e-06	445947.88
1.100026128703024e-09	0.2046236	0.00010247525	-0.40140176	-0.40192333	-8e-06	445947.9
1.1100396231277785e-09	0.20462471	7.460465e-05	-0.40137792	-0.4018994	-8e-06	445947.88
1.1200004696362253e-09	0.2046255	4.699142e-05	-0.40136194	-0.40188342	-8e-06	445947.88
1.130013934320858e-09	0.20462589	1.9527011e-05	-0.40135357	-0.40187505	-8e-06	445947.9
1.1400273455120934e-09	0.20462586	-7.458204e-06	-0.4013528	-0.40187427	-8e-06	445947.88
1.1500408342095497e-09	0.20462549	-3.383024e-05	-0.4013594	-0.4018809	-8e-06	445947.88
1.1600015917173702e-09	0.2046249	-5.9250255e-05	-0.40137318	-0.4018947	-8e-06	445947.9
1.1700150535181891e-09	0.20462409	-8.3798535e-05	-0.401394	-0.40191555	-8e-06	445947.88
1.180028466509764e-09	0.20462282	-0.000107225256	-0.40142155	-0.40194312	-8e-06	445947.88
1.1900419023638172e-09	0.2046212	-0.00012944776	-0.40145543	-0.40197703	-8e-06	445947.88
1.2000026814935984e-09	0.20461926	-0.00015021925	-0.40149507	-0.40201673	-8e-06	445947.88
1.2100161654022318e-09	0.20461713	-0.00016957083	-0.4015405	-0.4020622	-8e-06	445947.88
1.2200295873947674e-09	0.2046148	-0.00018729175	-0.401591	-0.40211278	-8e-06	445947.88
1.23004307769786e-09	0.20461227	-0.00020330971	-0.4016463	-0.4021681	-8e-06	445947.88
1.2400038617694273e-09	0.20460954	-0.00021752581	-0.40170535	-0.40222725	-8e-06	445947.88
1.2500172582040438e-09	0.20460664	-0.0002300385	-0.40176848	-0.40229046	-8e-06	445947.88
1.2600306301409476e-09	0.20460352	-0.0002407008	-0.40183473	-0.4023568	-8e-06	445947.9
1.270044137964685e-09	0.20460027	-0.0002494647	-0.4019037	-0.40242577	-8e-06	445947.88
1.2800048630328373e-09	0.20459695	-0.00025624357	-0.4019743	-0.40249652	-8e-06	445947.88
1.2900183329811602e-09	0.20459361	-0.0002611205	-0.40204695	-0.40256923	-8e-06	445947.9
1.300031751999854e-09	0.20459023	-0.000264091	-0.4021206	-0.40264297	-8e-06	445947.88
1.3100452375553268e-09	0.20458682	-0.00026518927	-0.40219474	-0.40271723	-8e-06	445947.88
1.3200060036850194e-09	0.20458339	-0.00026448333	-0.40226853	-0.40279108	-8e-06	445947.88
1.330019484585826e-09	0.20457996	-0.00026195386	-0.40234214	-0.40286478	-8e-06	445947.88
1.3400329978791826e-09	0.2045766	-0.00025762958	-0.40241474	-0.40293744	-8e-06	445947.88
1.3500464661813057e-09	0.20457332	-0.00025160096	-0.40248585	-0.40300867	-8e-06	445947.88
1.3600072177619323e-09	0.2045701	-0.00024400452	-0.4025546	-0.40307754	-8e-06	445947.88
1.3700206657381342e-09	0.20456702	-0.00023488363	-0.40262142	-0.4031444	-8e-06	445947.9
1.3800340861886103e-09	0.20456408	-0.00022434	-0.40268537	-0.40320837	-8e-06	445947.88
1.3900475522080143e-09	0.2045613	-0.0002124791	-0.40274614	-0.4032693	-8e-06	445947.88
1.4000082808352907e-09	0.20455869	-0.00019945663	-0.4028031	-0.40332624	-8e-06	445947.9
1.4100216744123446e-09	0.20455618	-0.00018526666	-0.4028565	-0.40337974	-8e-06	445947.88
1.4200351132074432e-09	0.20455386	-0.00017011125	-0.4029058	-0.40342903	-8e-06	445947.88
1.4300485652583086e-09	0.20455177	-0.00015410906	-0.40295067	-0.40347397	-8e-06	445947.88
1.4400093308325757e-09	0.20454995	-0.00013747744	-0.4029907	-0.4035141	-8e-06	445947.9
1.4500228016964407e-09	0.20454837	-0.00012017309	-0.4030262	-0.4035496	-8e-06	445947.9
1.4600362966036246e-09	0.20454693	-0.000102404374	-0.40305677	-0.40358022	-8e-06	445947.9
1.4700498083132818e-09	0.20454575	-8.433495e-05	-0.4030823	-0.4036058	-8e-06	445947.88
1.480010589088983e-09	0.20454478	-6.6183115e-05	-0.4031027	-0.40362617	-8e-06	445947.88
1.4900240156945523e-09	0.20454405	-4.7867856e-05	-0.40311804	-0.40364155	-8e-06	445947.88
1.5000374399904307e-09	0.20454358	-2.9618534e-05	-0.40312827	-0.40365177	-8e-06	445947.88
1.5100508878015163e-09	0.20454338	-1.1545817e-05	-0.4031334	-0.4036569	-8e-06	445947.88
1.5200116129766576e-09	0.20454343	6.138837e-06	-0.4031336	-0.4036571	-8e-06	445947.88
1.5300250962883902e-09	0.20454368	2.345615e-05	-0.40312886	-0.40365243	-8e-06	445947.88
1.54003857942906e-09	0.20454405	4.0195606e-05	-0.40311944	-0.40364295	-8e-06	445947.88
1.5500519717069177e-09	0.20454459	5.6276676e-05	-0.4031054	-0.4036289	-8e-06	445947.88
1.560012772161474e-09	0.20454538	7.1560426e-05	-0.40308708	-0.40361056	-8e-06	445947.9
1.5700262431768347e-09	0.20454648	8.61467e-05	-0.4030645	-0.40358797	-8e-06	445947.88
1.5800397198051665e-09	0.20454778	9.981461e-05	-0.40303802	-0.40356144	-8e-06	445947.9
1.590000437712099e-09	0.2045492	0.0001124163	-0.40300807	-0.4035315	-8e-06	445947.88
1.6000139003894897e-09	0.20455074	0.00012396966	-0.4029746	-0.40349793	-8e-06	445947.9
1.610027312373191e-09	0.20455238	0.0001343753	-0.4029381	-0.4034614	-8e-06	445947.88
1.6200407173275346e-09	0.20455416	0.00014366291	-0.40289882	-0.4034221	-8e-06	445947.88
1.6300015183860086e-09	0.20455606	0.00015174583	-0.40285742	-0.40338063	-8e-06	445947.9
1.6400149579339425e-09	0.20455807	0.00015868481	-0.40281373	-0.4033369	-8e-06	445947.88
1.6500284756859365e-09	0.20456024	0.00016434422	-0.40276828	-0.40329143	-8e-06	445947.88
1.6600419094676956e-09	0.20456244	0.00016870098	-0.40272152	-0.40324464	-8e-06	445947.88
1.6700026841504852e-09	0.20456465	0.00017175321	-0.402674	-0.40319702	-8e-06	445947.9
1.6800162012041893e-09	0.20456688	0.00017356778	-0.40262562	-0.40314856	-8e-06	445947.9
1.6900296107842728e-09	0.20456907	0.00017418379	-0.40257692	-0.40309978	-8e-06	445947.9
1.7000430584341837e-09	0.20457134	0.00017359322	-0.40252823	-0.40305102	-8e-06	445947.9
1.7100037158334473e-09	0.2045736	0.0001718441	-0.40248013	-0.40300292	-8e-06	445947.88
1.7200171629611496e-09	0.20457584	0.00016891574	-0.40243253	-0.40295526	-8e-06	445947.88
1.7300306478630451e-09	0.20457801	0.00016482883	-0.40238595	-0.4029086	-8e-06	445947.88
1.7400441043715869e-09	0.20458013	0.00015969972	-0.40234068	-0.4028633	-8e-06	445947.9
1.7500047646137093e-09	0.20458214	0.00015362045	-0.4022972	-0.40281978	-8e-06	445947.9
1.7600182445685962e-09	0.20458408	0.00014661765	-0.40225542	-0.40277794	-8e-06	445947.88
1.7700317613871307e-09	0.2045859	0.00013876338	-0.40221575	-0.4027382	-8e-06	445947.9
1.7800452484313244e-09	0.20458764	0.00013010096	-0.40217838	-0.4027008	-8e-06	445947.88
1.7900060847982586e-09	0.20458928	0.000120775905	-0.4021438	-0.40266612	-8e-06	445947.88
1.8000194710053601e-09	0.2045908	0.0001107489	-0.4021117	-0.40263405	-8e-06	445947.9
1.810032929167337e-09	0.20459215	0.00010018243	-0.4020825	-0.40260485	-8e-06	445947.9
1.8200463525053713e-09	0.20459336	8.9174435e-05	-0.40205637	-0.40257862	-8e-06	445947.88
1.8300071521494256e-09	0.20459439	7.785844e-05	-0.40203348	-0.40255573	-8e-06	445947.88
1.8400206324218892e-09	0.20459536	6.6204775e-05	-0.40201372	-0.40253592	-8e-06	445947.88
1.850034087116887e-09	0.20459615	5.4348606e-05	-0.4019972	-0.40251946	-8e-06	445947.88
1.8600474603873501e-09	0.20459674	4.234879e-05	-0.40198407	-0.4025063	-8e-06	445947.88
1.8700081643098156e-09	0.2045972	3.0374646e-05	-0.40197435	-0.40249658	-8e-06	445947.88
1.880021652698082e-09	0.2045975	1.8404502e-05	-0.40196794	-0.40249014	-8e-06	445947.88
1.8900350902581028e-09	0.2045976	6.5772915e-06	-0.40196487	-0.40248704	-8e-06	445947.88
1.9000485847972833e-09	0.20459759	-5.029749e-06	-0.40196502	-0.40248722	-8e-06	445947.88
1.9100092740916158e-09	0.20459744	-1.6276512e-05	-0.40196833	-0.40249056	-8e-06	445947.88
1.920022751713894e-09	0.20459719	-2.724306e-05	-0.40197477	-0.402497	-8e-06	445947.88
1.930036243778056e-09	0.20459677	-3.7784812e-05	-0.40198424	-0.40250644	-8e-06	445947.88
1.9400497389957244e-09	0.2045962	-4.7841484e-05	-0.40199652	-0.40251878	-8e-06	445947.88
1.9500105223506225e-09	0.20459549	-5.7292986e-05	-0.4020115	-0.40253374	-8e-06	445947.88
1.9600239533562395e-09	0.20459467	-6.6168046e-05	-0.40202904	-0.40255132	-8e-06	445947.88
1.9700374102236396e-09	0.20459373	-7.441014e-05	-0.402049	-0.4025713	-8e-06	445947.88
1.9800508819291674e-09	0.20459267	-8.1953825e-05	-0.40207115	-0.4025935	-8e-06	445947.9
1.9900116427911044e-09	0.2045916	-8.871879e-05	-0.40209514	-0.4026175	-8e-06	445947.9
2.0000250209164383e-09	0.2045904	-9.476462e-05	-0.40212104	-0.40264344	-8e-06	445947.88
2.0100385101816166e-09	0.20458913	-0.00010004609	-0.40214851	-0.40267092	-8e-06	445947.9
2.0200519578062445e-09	0.20458779	-0.00010450905	-0.40217727	-0.4026997	-8e-06	445947.88
2.0300126934663354e-09	0.20458637	-0.00010812312	-0.402207	-0.40272945	-8e-06	445947.88
2.040026114401086e-09	0.20458494	-0.0001109354	-0.40223774	-0.40276027	-8e-06	445947.9
2.0500395241108623e-09	0.20458353	-0.00011290609	-0.40226915	-0.40279168	-8e-06	445947.88
2.0600003642195487e-09	0.20458207	-0.00011404579	-0.40230083	-0.4028234	-8e-06	445947.88
2.070013890747856e-09	0.20458059	-0.00011439382	-0.40233278	-0.4028554	-8e-06	445947.88
2.0800273188544177e-09	0.20457909	-0.00011396573	-0.40236473	-0.4028874	-8e-06	445947.9
2.0900406966096226e-09	0.2045776	-0.00011274432	-0.40239644	-0.4029191	-8e-06	445947.9
2.100001490188887e-09	0.20457616	-0.0001107748	-0.40242752	-0.40295023	-8e-06	445947.88
2.1100149100939698e-09	0.20457475	-0.00010804683	-0.40245804	-0.4029808	-8e-06	445947.88
2.120028424454953e-09	0.20457342	-0.000104638086	-0.4024877	-0.40301052	-8e-06	445947.9
2.1300418477530515e-09	0.2045721	-0.00010060628	-0.40251628	-0.40303916	-8e-06	445947.88
2.1400025944945394e-09	0.20457083	-9.600321e-05	-0.40254351	-0.4030664	-8e-06	445947.88
2.150016011975112e-09	0.2045696	-9.0808164e-05	-0.4025695	-0.4030924	-8e-06	445947.9
2.160029549365282e-09	0.20456845	-8.5071515e-05	-0.40259394	-0.40311685	-8e-06	445947.88
2.170043089288551e-09	0.20456739	-7.8882054e-05	-0.4026167	-0.40313965	-8e-06	445947.88
2.180003787374063e-09	0.20456642	-7.231206e-05	-0.40263754	-0.4031605	-8e-06	445947.88
2.1900172051937684e-09	0.20456555	-6.534953e-05	-0.40265656	-0.40317956	-8e-06	445947.88
2.2000306994518573e-09	0.20456478	-5.8110083e-05	-0.4026736	-0.4031966	-8e-06	445947.88
2.2100441376197297e-09	0.20456406	-5.0630922e-05	-0.40268853	-0.4032116	-8e-06	445947.88
2.220004856881143e-09	0.20456347	-4.300035e-05	-0.4027013	-0.40322432	-8e-06	445947.88
2.2300182778520625e-09	0.20456299	-3.5169625e-05	-0.40271196	-0.403235	-8e-06	445947.9
2.2400317482259986e-09	0.2045626	-2.7267079e-05	-0.4027204	-0.40324345	-8e-06	445947.9
2.250045214066168e-09	0.20456229	-1.9381017e-05	-0.40272662	-0.4032497	-8e-06	445947.88
2.260006020282194e-09	0.20456208	-1.1596208e-05	-0.40273067	-0.40325373	-8e-06	445947.88
2.2700194695952885e-09	0.20456202	-3.853786e-06	-0.40273255	-0.4032556	-8e-06	445947.88
2.2800328750042353e-09	0.20456211	3.8066912e-06	-0.40273225	-0.40325534	-8e-06	445947.9
2.290046395335301e-09	0.20456223	1.125477e-05	-0.40272996	-0.40325302	-8e-06	445947.88
2.3000070939877e-09	0.20456238	1.8393905e-05	-0.40272564	-0.40324867	-8e-06	445947.88
2.3100205369380427e-09	0.20456259	2.5275665e-05	-0.40271932	-0.40324238	-8e-06	445947.9
2.3200340361350095e-09	0.20456296	3.1825643e-05	-0.4027111	-0.40323415	-8e-06	445947.88
2.330047508006801e-09	0.20456344	3.803206e-05	-0.4027011	-0.40322417	-8e-06	445947.88
2.340008252287534e-09	0.20456403	4.3852066e-05	-0.40268955	-0.4032126	-8e-06	445947.9
2.3500216652298693e-09	0.20456466	4.9269875e-05	-0.40267634	-0.40319937	-8e-06	445947.9
2.3600350960355662e-09	0.20456535	5.4189895e-05	-0.40266174	-0.4031847	-8e-06	445947.88
2.3700486798269873e-09	0.20456605	5.8582445e-05	-0.40264583	-0.40316877	-8e-06	445947.88
2.3800093754855974e-09	0.2045668	6.246637e-05	-0.4026288	-0.40315178	-8e-06	445947.9
2.3900228145072053e-09	0.20456763	6.589725e-05	-0.40261072	-0.40313366	-8e-06	445947.88
2.4000362454780955e-09	0.20456854	6.881714e-05	-0.40259174	-0.40311465	-8e-06	445947.9
2.4100496441609935e-09	0.20456947	7.1209564e-05	-0.4025721	-0.40309498	-8e-06	445947.88
2.4200104008003915e-09	0.20457043	7.300059e-05	-0.40255195	-0.4030748	-8e-06	445947.88
2.4300238543574847e-09	0.20457137	7.4227886e-05	-0.4025313	-0.40305412	-8e-06	445947.88
2.440037304156925e-09	0.20457233	7.491571e-05	-0.4025104	-0.40303323	-8e-06	445947.88
2.450050754314851e-09	0.2045733	7.508431e-05	-0.4024894	-0.40301213	-8e-06	445947.88
2.460011566705461e-09	0.20457424	7.477607e-05	-0.4024685	-0.40299127	-8e-06	445947.88
2.470025009781647e-09	0.20457523	7.396604e-05	-0.4024477	-0.40297046	-8e-06	445947.88
2.4800385233942733e-09	0.20457618	7.263042e-05	-0.40242723	-0.40295	-8e-06	445947.88
2.490051904793684e-09	0.20457712	7.079466e-05	-0.40240723	-0.4029299	-8e-06	445947.9
2.500012615004728e-09	0.20457803	6.852397e-05	-0.40238792	-0.4029106	-8e-06	445947.9
2.5100260513974892e-09	0.20457888	6.581766e-05	-0.40236917	-0.4028918	-8e-06	445947.88
2.5200394793884816e-09	0.20457971	6.274706e-05	-0.4023513	-0.4028739	-8e-06	445947.88
2.5300002995089585e-09	0.20458047	5.9340207e-05	-0.40233436	-0.402857	-8e-06	445947.9
2.5400137536106564e-09	0.20458123	5.5570486e-05	-0.40231842	-0.40284103	-8e-06	445947.88
2.5500272322530998e-09	0.20458193	5.14711e-05	-0.4023036	-0.40282622	-8e-06	445947.88
2.5600406775171528e-09	0.2045826	4.7106332e-05	-0.40228996	-0.4028125	-8e-06	445947.9
2.5700014390989917e-09	0.20458317	4.2548472e-05	-0.40227762	-0.40280014	-8e-06	445947.88
2.580014883396304e-09	0.20458366	3.7784812e-05	-0.4022666	-0.4027891	-8e-06	445947.88
2.5900283461340154e-09	0.20458408	3.285349e-05	-0.40225682	-0.40277937	-8e-06	445947.88
2.600041780543998e-09	0.20458445	2.7801138e-05	-0.40224853	-0.40277106	-8e-06	445947.88
2.610002521526815e-09	0.20458479	2.2707338e-05	-0.4022417	-0.4027642	-8e-06	445947.9
2.6200159588868444e-09	0.20458508	1.7542427e-05	-0.40223625	-0.40275875	-8e-06	445947.88
2.6300294587042e-09	0.20458528	1.2361503e-05	-0.40223226	-0.40275475	-8e-06	445947.88
2.6400429721542787e-09	0.20458542	7.1918817e-06	-0.4022297	-0.4027522	-8e-06	445947.9
2.65000372691264e-09	0.20458545	2.1244566e-06	-0.4022286	-0.4027511	-8e-06	445947.88
2.660017183521233e-09	0.20458537	-2.8676163e-06	-0.4022289	-0.40275133	-8e-06	445947.9
2.670030691567868e-09	0.20458528	-7.736771e-06	-0.40223047	-0.40275297	-8e-06	445947.88
2.680044148842477e-09	0.20458516	-1.2422726e-05	-0.40223345	-0.40275595	-8e-06	445947.88
2.690004825786665e-09	0.20458502	-1.6892045e-05	-0.40223765	-0.40276015	-8e-06	445947.88
2.700018267512681e-09	0.20458476	-2.119088e-05	-0.4022431	-0.40276563	-8e-06	445947.88
2.7100316691110648e-09	0.20458445	-2.5266954e-05	-0.40224972	-0.40277225	-8e-06	445947.88
2.7200451067767276e-09	0.20458409	-2.908071e-05	-0.4022574	-0.40277994	-8e-06	445947.88
2.7300058770503356e-09	0.2045837	-3.2570922e-05	-0.40226614	-0.40278864	-8e-06	445947.9
2.740019373829615e-09	0.20458324	-3.5761608e-05	-0.40227574	-0.4027983	-8e-06	445947.88
2.7500328989070847e-09	0.20458274	-3.8655362e-05	-0.40228626	-0.40280885	-8e-06	445947.88
2.760046361985497e-09	0.20458218	-4.1220865e-05	-0.40229753	-0.40282008	-8e-06	445947.88
2.7700070213640618e-09	0.20458168	-4.344234e-05	-0.40230936	-0.4028319	-8e-06	445947.88
2.7800205324062665e-09	0.20458111	-4.53219e-05	-0.40232188	-0.4028444	-8e-06	445947.9
2.7900340203325368e-09	0.20458055	-4.6829882e-05	-0.40233475	-0.4028574	-8e-06	445947.88
2.800047422988133e-09	0.2045799	-4.799831e-05	-0.40234807	-0.40287068	-8e-06	445947.9
2.810008158401242e-09	0.20457926	-4.8799633e-05	-0.40236154	-0.40288422	-8e-06	445947.88
2.8200216572489428e-09	0.20457861	-4.9256218e-05	-0.4023753	-0.40289795	-8e-06	445947.9
2.8300350509465498e-09	0.20457797	-4.93603e-05	-0.4023891	-0.40291178	-8e-06	445947.88
2.840048478047227e-09	0.20457734	-4.9105987e-05	-0.40240285	-0.40292555	-8e-06	445947.88
2.8500092838579504e-09	0.20457673	-4.852554e-05	-0.4024164	-0.4029391	-8e-06	445947.9
2.860022790856956e-09	0.2045761	-4.7623435e-05	-0.40242982	-0.40295258	-8e-06	445947.88
2.870036270112352e-09	0.20457548	-4.6429104e-05	-0.40244293	-0.4029657	-8e-06	445947.88
2.880049749542876e-09	0.20457488	-4.4942786e-05	-0.4024557	-0.40297842	-8e-06	445947.88
2.890010455695894e-09	0.20457432	-4.3168715e-05	-0.40246788	-0.40299064	-8e-06	445947.88
2.9000238915286015e-09	0.20457378	-4.1124556e-05	-0.4024796	-0.40300235	-8e-06	445947.88
2.9100373006420203e-09	0.20457327	-3.883409e-05	-0.4024907	-0.40301347	-8e-06	445947.88
2.920050802208693e-09	0.20457281	-3.633758e-05	-0.4025011	-0.40302393	-8e-06	445947.88
2.9300116410627523e-09	0.20457233	-3.3668235e-05	-0.4025108	-0.4030336	-8e-06	445947.88
2.9400251281242706e-09	0.20457187	-3.081522e-05	-0.40251967	-0.4030425	-8e-06	445947.88
2.9500385922611234e-09	0.20457155	-2.780561e-05	-0.40252778	-0.4030506	-8e-06	445947.88
2.960052031828746e-09	0.20457122	-2.4641531e-05	-0.40253496	-0.40305784	-8e-06	445947.88
2.9700127572468005e-09	0.20457093	-2.1401864e-05	-0.40254128	-0.40306413	-8e-06	445947.88
2.9800262505359834e-09	0.2045707	-1.8092496e-05	-0.4025467	-0.40306956	-8e-06	445947.9
2.9900397476232595e-09	0.20457044	-1.4730383e-05	-0.40255114	-0.403074	-8e-06	445947.9
3e-09	0.20457028	-1.136921e-05	-0.40255463	-0.40307754	-8e-06	445947.88
3.010019615288805e-09	0.19894515	-0.003485506	-0.40232447	-0.4028556	-8e-06	481605.75
3.0200324896318175e-09	0.19007492	-0.0032589873	-0.4021248	-0.40261978	-8e-06	481605.75
3.030046979329811e-09	0.18625401	-0.0012006214	-0.40199262	-0.4025146	-8e-06	481605.75
3.0400090854012894e-09	0.18895924	0.0017005021	-0.4020864	-0.40260202	-8e-06	481605.75
3.050023288101024e-09	0.19457756	0.0035074316	-0.40204573	-0.4025703	-8e-06	481605.75
3.060037260268367e-09	0.19836617	0.0037730918	-0.40186813	-0.40243247	-8e-06	481605.75
3.07005082365178e-09	0.19835009	0.0021757372	-0.40156844	-0.4020603	-8e-06	481605.75
3.0800113632319773e-09	0.19546163	-0.0012116036	-0.40114355	-0.40166044	-8e-06	481605.75
3.0900246091884524e-09	0.19199356	-0.0034069584	-0.4010343	-0.4015239	-8e-06	481605.75
3.1000377293977215e-09	0.19067529	-0.0014485406	-0.40080494	-0.40133756	-8e-06	481605.75
3.110051097125997e-09	0.19159548	0.0028079243	-0.4004813	-0.40102878	-8e-06	481605.75
3.1200116444857857e-09	0.19329494	0.005726931	-0.40017343	-0.4006849	-8e-06	481605.75
3.1300250772151135e-09	0.19514051	0.004363091	-0.39977273	-0.40029514	-8e-06	481605.75
3.140038711782167e-09	0.19648473	7.369713e-05	-0.39940014	-0.39988455	-8e-06	481605.75
3.1500519949691017e-09	0.19646601	-0.0025665406	-0.39903477	-0.3995517	-8e-06	481605.75
3.160012453280397e-09	0.19440302	-0.001341079	-0.39871258	-0.3992431	-8e-06	481605.75
3.170025827086447e-09	0.19153929	0.0021101926	-0.39836693	-0.3988934	-8e-06	481605.75
3.180039190692001e-09	0.19050951	0.004127028	-0.39796683	-0.398486	-8e-06	481605.75
3.1900523386766755e-09	0.19229965	0.0031354015	-0.3975757	-0.3980721	-8e-06	481605.75
3.2000126171250437e-09	0.19538607	0.0010719659	-0.39718106	-0.3976907	-8e-06	481605.75
3.210025755160867e-09	0.19736831	7.6982e-05	-0.39682436	-0.3973414	-8e-06	481605.75
3.220038982526901e-09	0.19658598	0.0003948447	-0.39650574	-0.3970275	-8e-06	481605.75
3.230052060192839e-09	0.19361009	0.001042975	-0.39615476	-0.3966721	-8e-06	481605.75
3.2400124137049693e-09	0.1909144	0.0012504832	-0.39578986	-0.3962942	-8e-06	481605.75
3.2500255807804287e-09	0.1908592	0.0013640571	-0.39545712	-0.39596626	-8e-06	481605.75
3.260038792453589e-09	0.1935338	0.0016367406	-0.39516503	-0.39567807	-8e-06	481605.75
3.270051942260587e-09	0.19637504	0.0016457989	-0.39488968	-0.39540434	-8e-06	481605.75
3.2800123143134064e-09	0.19685875	0.0011829197	-0.39462385	-0.39513776	-8e-06	481605.75
3.2900254721871246e-09	0.1949389	0.0004707678	-0.39435205	-0.3948613	-8e-06	481605.75
3.300038697447126e-09	0.19259708	-1.5741041e-05	-0.39410138	-0.39460772	-8e-06	481605.75
3.3100520060092082e-09	0.19175835	9.7328e-05	-0.3939098	-0.39441776	-8e-06	481605.75
3.3200125499458565e-09	0.19274528	0.00069722114	-0.39375705	-0.3942702	-8e-06	481605.75
3.3300258167602834e-09	0.19445194	0.0013247549	-0.39359996	-0.39411435	-8e-06	481605.75
3.3400389808749097e-09	0.19550975	0.0013929325	-0.3934347	-0.3939453	-8e-06	481605.75
3.3500522378335152e-09	0.19529122	0.0006772642	-0.39330506	-0.39381078	-8e-06	481605.75
3.360012838214626e-09	0.19424853	-0.00033650434	-0.39323106	-0.39373657	-8e-06	481605.75
3.3700262010706246e-09	0.19329818	-0.00088116986	-0.39319366	-0.39370254	-8e-06	481605.75
3.3800394487932796e-09	0.19299906	-0.0005143345	-0.3931685	-0.39368144	-8e-06	481605.75
3.3900000105943528e-09	0.19333099	0.00040270723	-0.3931425	-0.39365593	-8e-06	481605.75
3.400013343069702e-09	0.19400276	0.00095557835	-0.39313424	-0.3936432	-8e-06	481605.75
3.4100266704829534e-09	0.19465292	0.00056403124	-0.39316747	-0.39367333	-8e-06	481605.75