//mumax 3.10 [windows_amd64 go1.11.6(gc) CUDA-11.0]
//GPU info: NVIDIA GeForce RTX 3070 Laptop GPU(8191MB), CUDA Driver 11.6, cc=8.6, using cc=80 PTX
//(c) Arne Vansteenkiste, Dynamat LAB, Ghent University, Belgium
//This is free software without any warranty. See license.txt
//********************************************************************//
//  If you use mumax in any work or publication,                      //
//  we kindly ask you to cite the references in references.bib        //
//********************************************************************//
//output directory: DWconcat_539132639_2.out/
notch_flag := 0
unotch_only := 0
edge_rough := 0
preload_geom := 0
SnapshotFormat = "png"
Temp = 0
ThermSeed(0)
random_seed := 0
sizeX := 320e-9
sizeY := 15e-9
sizeZ := 3e-9
hm_sizeZ := sizeZ
fm_cross_sec := sizeY * sizeZ
hm_cross_sec := sizeY * hm_sizeZ
notch_diam := 8e-9
rough_diam := 1e-9
notch_space_L := 50e-9
w1 := sizeY
w2 := sizeY
angle := Asin(0.5 * (w2 - w1) / sizeX)
notch_space := notch_space_L / cos(angle)
Nx := 320
Ny := 15
setgridsize(Nx, Ny, 1)
setcellsize(sizeX/Nx, sizeY/Ny, sizeZ)
if preload_geom == 1 {
	setGeom(imageShape("STTPMA_rough.png"))
} else {
	if edge_rough == 1 {
		maxrect := sizeX / rough_diam
		xcenter := -0.5 * (sizeX - rough_diam)
		xheight := (xcenter+(0.5*sizeX))*((w2-w1)/sizeX) + w1
		baserect := rect(rough_diam, w1+(0.5*rough_diam*randNorm())).transl(xcenter, 0.5*rough_diam*randNorm(), 0)
		for i := 1; i < maxrect; i++ {
			randSeed(random_seed)
			random_seed += 1
			xcenter = xcenter + rough_diam
			xheight = (xcenter+(0.5*sizeX))*((w2-w1)/sizeX) + w1
			baserect = baserect.add(rect(rough_diam, xheight+(0.5*rough_diam*randNorm())).transl(xcenter, 0.5*rough_diam*randNorm(), 0))
		}
		if notch_flag == 1 {
			notch := circle(notch_diam).repeat(25e-9, 0, 0)
			unotch := notch.transl(0, 0.25*(w1+w2), 0).rotz(angle)
			lnotch := notch.transl(0, -0.25*(w1+w2), 0).rotz(-angle)
			setGeom(baserect.sub(unotch).sub(lnotch))
			saveAs(geom, "SOTPMA_rough_notch")
		} else {
			setGeom(baserect)
			saveAs(geom, "SOTPMA_rough")
		}
	} else {
		uhrect := rect(2*sizeX, sizeY).sub(rect(2*sizeX, 0.5*sizeY).transl(0, -0.25*sizeY, 0))
		utilt := uhrect.transl(0, 0.25*(w1+w2), 0).rotz(angle)
		lhrect := rect(2*sizeX, sizeY).sub(rect(2*sizeX, 0.5*sizeY).transl(0, 0.25*sizeY, 0))
		ltilt := lhrect.transl(0, -0.25*(w1+w2), 0).rotz(-angle)
		baserect := rect(sizeX, sizeY).sub(utilt).sub(ltilt)
		if notch_flag == 1 {
			notch := circle(notch_diam).repeat(notch_space, 0, 0).transl(0.5*notch_space_L, 0, 0)
			if unotch_only == 1 {
				unotch := notch.transl(0, 0.25*(w1+w2), 0).rotz(angle)
				setGeom(baserect.sub(unotch))
				saveAs(geom, "STTPMA_smooth_notch")
			} else if unotch_only == -1 {
				lnotch := notch.transl(0, -0.25*(w1+w2), 0).rotz(-angle)
				setGeom(baserect.sub(lnotch))
				saveAs(geom, "STTPMA_smooth_notch")
			} else {
				unotch := notch.transl(0, 0.25*(w1+w2), 0).rotz(angle)
				lnotch := notch.transl(0, -0.25*(w1+w2), 0).rotz(-angle)
				setGeom(baserect.sub(unotch).sub(lnotch))
				saveAs(geom, "STTPMA_smooth_notch")
			}
		} else {
			setGeom(baserect)
			saveAs(geom, "SOTPMA_smooth")
		}
	}
}
fixed_w := 5e-9
grainSize := 1e-9
randomSeed := 539132639
maxRegion := 253
randK := 0.0125
varK := 0.025
ext_makegrains(grainSize, maxRegion, randomSeed)
for i := 0; i < maxRegion; i++ {
	Ku1.setRegion(i, 5e5+((2*(rand()-0.5))*5e5*varK))
}
defregion(254, rect(fixed_w, sizeY).transl(-((0.5*sizeX)-(0.5*fixed_w)), 0, 0))
defregion(255, rect(fixed_w, sizeY).transl(((0.5*sizeX)-(0.5*fixed_w)), 0, 0))
startpos := 50e-9
m = TwoDomain(0, 0, 1, 1, 0, 0, 0, 0, -1).transl(-(0.5*sizeX)+startpos+fixed_w, 0, 0)
m.setRegion(254, uniform(0, 0, 1))
m.setRegion(255, uniform(0, 0, -1))
frozenspins.setRegion(254, 254)
frozenspins.setRegion(255, 255)
EdgeSmooth = 8
Ms := 800e3
Msat = Ms
Aex = 1.3e-11
al := 0.05
alpha = al
AnisU = vector(0, 0, 1)
dmi := -0.5e-3
Dind = dmi
Xi = 0.05
stt_P := 0.7
sot_P := 0.2
scale2hm := sot_P / stt_P
pol = sot_P
u_B := 9.274e-24
alpha_R := 2e-30
lambda = 1
epsilonprime = 0
fixedlayer = vector(0, -1, 0)
I_pulse := -8e-6
I := I_pulse
fm2hm := 0.5
j_fm := 0.0
j_hm := 0.0
relax()
mx_mid := cropY(m.Comp(2), floor(Ny/2), floor(Ny/2+1))
tableAdd(mx_mid)
tableAddVar(I, "I_x", "A")
tableautosave(10e-12)
dt_step := 0.05e-09
j_x0 := -0.00000e+00
J = vector(0, 0, j_x0)
tau_RE := (alpha_R * (j_x0 / 2) * stt_P) / (u_B * Ms)
B_ext = vector(0, tau_RE, 0)
run(dt_step)
j_x1 := -0.00000e+00
J = vector(0, 0, j_x1)
tau_RE = (alpha_R * (j_x1 / 2) * stt_P) / (u_B * Ms)
B_ext = vector(0, tau_RE, 0)
run(dt_step)
j_x2 := -0.00000e+00
J = vector(0, 0, j_x2)
tau_RE = (alpha_R * (j_x2 / 2) * stt_P) / (u_B * Ms)
B_ext = vector(0, tau_RE, 0)
run(dt_step)
j_x3 := -0.00000e+00
J = vector(0, 0, j_x3)
tau_RE = (alpha_R * (j_x3 / 2) * stt_P) / (u_B * Ms)
B_ext = vector(0, tau_RE, 0)
run(dt_step)
j_x4 := -0.00000e+00
J = vector(0, 0, j_x4)
tau_RE = (alpha_R * (j_x4 / 2) * stt_P) / (u_B * Ms)
B_ext = vector(0, tau_RE, 0)
run(dt_step)
j_x5 := -0.00000e+00
J = vector(0, 0, j_x5)
tau_RE = (alpha_R * (j_x5 / 2) * stt_P) / (u_B * Ms)
B_ext = vector(0, tau_RE, 0)
run(dt_step)
j_x6 := -0.00000e+00
J = vector(0, 0, j_x6)
tau_RE = (alpha_R * (j_x6 / 2) * stt_P) / (u_B * Ms)
B_ext = vector(0, tau_RE, 0)
run(dt_step)
j_x7 := -0.00000e+00
J = vector(0, 0, j_x7)
tau_RE = (alpha_R * (j_x7 / 2) * stt_P) / (u_B * Ms)
B_ext = vector(0, tau_RE, 0)
run(dt_step)
j_x8 := -0.00000e+00
J = vector(0, 0, j_x8)
tau_RE = (alpha_R * (j_x8 / 2) * stt_P) / (u_B * Ms)
B_ext = vector(0, tau_RE, 0)
run(dt_step)
j_x9 := -0.00000e+00
J = vector(0, 0, j_x9)
tau_RE = (alpha_R * (j_x9 / 2) * stt_P) / (u_B * Ms)
B_ext = vector(0, tau_RE, 0)
run(dt_step)
j_x10 := -0.00000e+00
J = vector(0, 0, j_x10)
tau_RE = (alpha_R * (j_x10 / 2) * stt_P) / (u_B * Ms)
B_ext = vector(0, tau_RE, 0)
run(dt_step)
j_x11 := -0.00000e+00
J = vector(0, 0, j_x11)
tau_RE = (alpha_R * (j_x11 / 2) * stt_P) / (u_B * Ms)
B_ext = vector(0, tau_RE, 0)
run(dt_step)
j_x12 := -0.00000e+00
J = vector(0, 0, j_x12)
tau_RE = (alpha_R * (j_x12 / 2) * stt_P) / (u_B * Ms)
B_ext = vector(0, tau_RE, 0)
run(dt_step)
j_x13 := -0.00000e+00
J = vector(0, 0, j_x13)
tau_RE = (alpha_R * (j_x13 / 2) * stt_P) / (u_B * Ms)
B_ext = vector(0, tau_RE, 0)
run(dt_step)
j_x14 := -0.00000e+00
J = vector(0, 0, j_x14)
tau_RE = (alpha_R * (j_x14 / 2) * stt_P) / (u_B * Ms)
B_ext = vector(0, tau_RE, 0)
run(dt_step)
j_x15 := -0.00000e+00
J = vector(0, 0, j_x15)
tau_RE = (alpha_R * (j_x15 / 2) * stt_P) / (u_B * Ms)
B_ext = vector(0, tau_RE, 0)
run(dt_step)
j_x16 := -0.00000e+00
J = vector(0, 0, j_x16)
tau_RE = (alpha_R * (j_x16 / 2) * stt_P) / (u_B * Ms)
B_ext = vector(0, tau_RE, 0)
run(dt_step)
j_x17 := -0.00000e+00
J = vector(0, 0, j_x17)
tau_RE = (alpha_R * (j_x17 / 2) * stt_P) / (u_B * Ms)
B_ext = vector(0, tau_RE, 0)
run(dt_step)
j_x18 := -0.00000e+00
J = vector(0, 0, j_x18)
tau_RE = (alpha_R * (j_x18 / 2) * stt_P) / (u_B * Ms)
B_ext = vector(0, tau_RE, 0)
run(dt_step)
j_x19 := -0.00000e+00
J = vector(0, 0, j_x19)
tau_RE = (alpha_R * (j_x19 / 2) * stt_P) / (u_B * Ms)
B_ext = vector(0, tau_RE, 0)
run(dt_step)
j_x20 := -3.00000e+10
J = vector(0, 0, j_x20)
tau_RE = (alpha_R * (j_x20 / 2) * stt_P) / (u_B * Ms)
B_ext = vector(0, tau_RE, 0)
run(dt_step)
j_x21 := -3.00000e+10
J = vector(0, 0, j_x21)
tau_RE = (alpha_R * (j_x21 / 2) * stt_P) / (u_B * Ms)
B_ext = vector(0, tau_RE, 0)
run(dt_step)
j_x22 := -3.00000e+10
J = vector(0, 0, j_x22)
tau_RE = (alpha_R * (j_x22 / 2) * stt_P) / (u_B * Ms)
B_ext = vector(0, tau_RE, 0)
run(dt_step)
j_x23 := -3.00000e+10
J = vector(0, 0, j_x23)
tau_RE = (alpha_R * (j_x23 / 2) * stt_P) / (u_B * Ms)
B_ext = vector(0, tau_RE, 0)
run(dt_step)
j_x24 := -3.00000e+10
J = vector(0, 0, j_x24)
tau_RE = (alpha_R * (j_x24 / 2) * stt_P) / (u_B * Ms)
B_ext = vector(0, tau_RE, 0)
run(dt_step)
j_x25 := -3.00000e+10
J = vector(0, 0, j_x25)
tau_RE = (alpha_R * (j_x25 / 2) * stt_P) / (u_B * Ms)
B_ext = vector(0, tau_RE, 0)
run(dt_step)
j_x26 := -3.00000e+10
J = vector(0, 0, j_x26)
tau_RE = (alpha_R * (j_x26 / 2) * stt_P) / (u_B * Ms)
B_ext = vector(0, tau_RE, 0)
run(dt_step)
j_x27 := -3.00000e+10
J = vector(0, 0, j_x27)
tau_RE = (alpha_R * (j_x27 / 2) * stt_P) / (u_B * Ms)
B_ext = vector(0, tau_RE, 0)
run(dt_step)
j_x28 := -3.00000e+10
J = vector(0, 0, j_x28)
tau_RE = (alpha_R * (j_x28 / 2) * stt_P) / (u_B * Ms)
B_ext = vector(0, tau_RE, 0)
run(dt_step)
j_x29 := -3.00000e+10
J = vector(0, 0, j_x29)
tau_RE = (alpha_R * (j_x29 / 2) * stt_P) / (u_B * Ms)
B_ext = vector(0, tau_RE, 0)
run(dt_step)
j_x30 := -3.00000e+10
J = vector(0, 0, j_x30)
tau_RE = (alpha_R * (j_x30 / 2) * stt_P) / (u_B * Ms)
B_ext = vector(0, tau_RE, 0)
run(dt_step)
j_x31 := -3.00000e+10
J = vector(0, 0, j_x31)
tau_RE = (alpha_R * (j_x31 / 2) * stt_P) / (u_B * Ms)
B_ext = vector(0, tau_RE, 0)
run(dt_step)
j_x32 := -3.00000e+10
J = vector(0, 0, j_x32)
tau_RE = (alpha_R * (j_x32 / 2) * stt_P) / (u_B * Ms)
B_ext = vector(0, tau_RE, 0)
run(dt_step)
j_x33 := -3.00000e+10
J = vector(0, 0, j_x33)
tau_RE = (alpha_R * (j_x33 / 2) * stt_P) / (u_B * Ms)
B_ext = vector(0, tau_RE, 0)
run(dt_step)
j_x34 := -3.00000e+10
J = vector(0, 0, j_x34)
tau_RE = (alpha_R * (j_x34 / 2) * stt_P) / (u_B * Ms)
B_ext = vector(0, tau_RE, 0)
run(dt_step)
j_x35 := -3.00000e+10
J = vector(0, 0, j_x35)
tau_RE = (alpha_R * (j_x35 / 2) * stt_P) / (u_B * Ms)
B_ext = vector(0, tau_RE, 0)
run(dt_step)
j_x36 := -3.00000e+10
J = vector(0, 0, j_x36)
tau_RE = (alpha_R * (j_x36 / 2) * stt_P) / (u_B * Ms)
B_ext = vector(0, tau_RE, 0)
run(dt_step)
j_x37 := -3.00000e+10
J = vector(0, 0, j_x37)
tau_RE = (alpha_R * (j_x37 / 2) * stt_P) / (u_B * Ms)
B_ext = vector(0, tau_RE, 0)
run(dt_step)
j_x38 := -3.00000e+10
J = vector(0, 0, j_x38)
tau_RE = (alpha_R * (j_x38 / 2) * stt_P) / (u_B * Ms)
B_ext = vector(0, tau_RE, 0)
run(dt_step)
j_x39 := -3.00000e+10
J = vector(0, 0, j_x39)
tau_RE = (alpha_R * (j_x39 / 2) * stt_P) / (u_B * Ms)
B_ext = vector(0, tau_RE, 0)
run(dt_step)
j_x40 := -3.00000e+10
J = vector(0, 0, j_x40)
tau_RE = (alpha_R * (j_x40 / 2) * stt_P) / (u_B * Ms)
B_ext = vector(0, tau_RE, 0)
run(dt_step)
j_x41 := -3.00000e+10
J = vector(0, 0, j_x41)
tau_RE = (alpha_R * (j_x41 / 2) * stt_P) / (u_B * Ms)
B_ext = vector(0, tau_RE, 0)
run(dt_step)
j_x42 := -3.00000e+10
J = vector(0, 0, j_x42)
tau_RE = (alpha_R * (j_x42 / 2) * stt_P) / (u_B * Ms)
B_ext = vector(0, tau_RE, 0)
run(dt_step)
j_x43 := -3.00000e+10
J = vector(0, 0, j_x43)
tau_RE = (alpha_R * (j_x43 / 2) * stt_P) / (u_B * Ms)
B_ext = vector(0, tau_RE, 0)
run(dt_step)
j_x44 := -3.00000e+10
J = vector(0, 0, j_x44)
tau_RE = (alpha_R * (j_x44 / 2) * stt_P) / (u_B * Ms)
B_ext = vector(0, tau_RE, 0)
run(dt_step)
j_x45 := -3.00000e+10
J = vector(0, 0, j_x45)
tau_RE = (alpha_R * (j_x45 / 2) * stt_P) / (u_B * Ms)
B_ext = vector(0, tau_RE, 0)
run(dt_step)
j_x46 := -3.00000e+10
J = vector(0, 0, j_x46)
tau_RE = (alpha_R * (j_x46 / 2) * stt_P) / (u_B * Ms)
B_ext = vector(0, tau_RE, 0)
run(dt_step)
j_x47 := -3.00000e+10
J = vector(0, 0, j_x47)
tau_RE = (alpha_R * (j_x47 / 2) * stt_P) / (u_B * Ms)
B_ext = vector(0, tau_RE, 0)
run(dt_step)
j_x48 := -3.00000e+10
J = vector(0, 0, j_x48)
tau_RE = (alpha_R * (j_x48 / 2) * stt_P) / (u_B * Ms)
B_ext = vector(0, tau_RE, 0)
run(dt_step)
j_x49 := -3.00000e+10
J = vector(0, 0, j_x49)
tau_RE = (alpha_R * (j_x49 / 2) * stt_P) / (u_B * Ms)
B_ext = vector(0, tau_RE, 0)
run(dt_step)
j_x50 := -3.00000e+10
J = vector(0, 0, j_x50)
tau_RE = (alpha_R * (j_x50 / 2) * stt_P) / (u_B * Ms)
B_ext = vector(0, tau_RE, 0)
run(dt_step)
j_x51 := -3.00000e+10
J = vector(0, 0, j_x51)
tau_RE = (alpha_R * (j_x51 / 2) * stt_P) / (u_B * Ms)
B_ext = vector(0, tau_RE, 0)
run(dt_step)
j_x52 := -3.00000e+10
J = vector(0, 0, j_x52)
tau_RE = (alpha_R * (j_x52 / 2) * stt_P) / (u_B * Ms)
B_ext = vector(0, tau_RE, 0)
run(dt_step)
j_x53 := -3.00000e+10
J = vector(0, 0, j_x53)
tau_RE = (alpha_R * (j_x53 / 2) * stt_P) / (u_B * Ms)
B_ext = vector(0, tau_RE, 0)
run(dt_step)
j_x54 := -3.00000e+10
J = vector(0, 0, j_x54)
tau_RE = (alpha_R * (j_x54 / 2) * stt_P) / (u_B * Ms)
B_ext = vector(0, tau_RE, 0)
run(dt_step)
j_x55 := -3.00000e+10
J = vector(0, 0, j_x55)
tau_RE = (alpha_R * (j_x55 / 2) * stt_P) / (u_B * Ms)
B_ext = vector(0, tau_RE, 0)
run(dt_step)
j_x56 := -3.00000e+10
J = vector(0, 0, j_x56)
tau_RE = (alpha_R * (j_x56 / 2) * stt_P) / (u_B * Ms)
B_ext = vector(0, tau_RE, 0)
run(dt_step)
j_x57 := -3.00000e+10
J = vector(0, 0, j_x57)
tau_RE = (alpha_R * (j_x57 / 2) * stt_P) / (u_B * Ms)
B_ext = vector(0, tau_RE, 0)
run(dt_step)
j_x58 := -3.00000e+10
J = vector(0, 0, j_x58)
tau_RE = (alpha_R * (j_x58 / 2) * stt_P) / (u_B * Ms)
B_ext = vector(0, tau_RE, 0)
run(dt_step)
j_x59 := -3.00000e+10
J = vector(0, 0, j_x59)
tau_RE = (alpha_R * (j_x59 / 2) * stt_P) / (u_B * Ms)
B_ext = vector(0, tau_RE, 0)
run(dt_step)
j_x60 := -3.00000e+10
J = vector(0, 0, j_x60)
tau_RE = (alpha_R * (j_x60 / 2) * stt_P) / (u_B * Ms)
B_ext = vector(0, tau_RE, 0)
run(dt_step)
j_x61 := -3.00000e+10
J = vector(0, 0, j_x61)
tau_RE = (alpha_R * (j_x61 / 2) * stt_P) / (u_B * Ms)
B_ext = vector(0, tau_RE, 0)
run(dt_step)
j_x62 := -3.00000e+10
J = vector(0, 0, j_x62)
tau_RE = (alpha_R * (j_x62 / 2) * stt_P) / (u_B * Ms)
B_ext = vector(0, tau_RE, 0)
run(dt_step)
j_x63 := -3.00000e+10
J = vector(0, 0, j_x63)
tau_RE = (alpha_R * (j_x63 / 2) * stt_P) / (u_B * Ms)
B_ext = vector(0, tau_RE, 0)
run(dt_step)
j_x64 := -3.00000e+10
J = vector(0, 0, j_x64)
tau_RE = (alpha_R * (j_x64 / 2) * stt_P) / (u_B * Ms)
B_ext = vector(0, tau_RE, 0)
run(dt_step)
j_x65 := -3.00000e+10
J = vector(0, 0, j_x65)
tau_RE = (alpha_R * (j_x65 / 2) * stt_P) / (u_B * Ms)
B_ext = vector(0, tau_RE, 0)
run(dt_step)
j_x66 := -3.00000e+10
J = vector(0, 0, j_x66)
tau_RE = (alpha_R * (j_x66 / 2) * stt_P) / (u_B * Ms)
B_ext = vector(0, tau_RE, 0)
run(dt_step)
j_x67 := -3.00000e+10
J = vector(0, 0, j_x67)
tau_RE = (alpha_R * (j_x67 / 2) * stt_P) / (u_B * Ms)
B_ext = vector(0, tau_RE, 0)
run(dt_step)
j_x68 := -3.00000e+10
J = vector(0, 0, j_x68)
tau_RE = (alpha_R * (j_x68 / 2) * stt_P) / (u_B * Ms)
B_ext = vector(0, tau_RE, 0)
run(dt_step)
j_x69 := -3.00000e+10
J = vector(0, 0, j_x69)
tau_RE = (alpha_R * (j_x69 / 2) * stt_P) / (u_B * Ms)
B_ext = vector(0, tau_RE, 0)
run(dt_step)
j_x70 := -3.00000e+10
J = vector(0, 0, j_x70)
tau_RE = (alpha_R * (j_x70 / 2) * stt_P) / (u_B * Ms)
B_ext = vector(0, tau_RE, 0)
run(dt_step)
j_x71 := -3.00000e+10
J = vector(0, 0, j_x71)
tau_RE = (alpha_R * (j_x71 / 2) * stt_P) / (u_B * Ms)
B_ext = vector(0, tau_RE, 0)
run(dt_step)
j_x72 := -2.84823e+10
J = vector(0, 0, j_x72)
tau_RE = (alpha_R * (j_x72 / 2) * stt_P) / (u_B * Ms)
B_ext = vector(0, tau_RE, 0)
run(dt_step)
j_x73 := -2.61030e+10
J = vector(0, 0, j_x73)
tau_RE = (alpha_R * (j_x73 / 2) * stt_P) / (u_B * Ms)
B_ext = vector(0, tau_RE, 0)
run(dt_step)
j_x74 := -2.41717e+10
J = vector(0, 0, j_x74)
tau_RE = (alpha_R * (j_x74 / 2) * stt_P) / (u_B * Ms)
B_ext = vector(0, tau_RE, 0)
run(dt_step)
j_x75 := -2.25822e+10
J = vector(0, 0, j_x75)
tau_RE = (alpha_R * (j_x75 / 2) * stt_P) / (u_B * Ms)
B_ext = vector(0, tau_RE, 0)
run(dt_step)
j_x76 := -2.12556e+10
J = vector(0, 0, j_x76)
tau_RE = (alpha_R * (j_x76 / 2) * stt_P) / (u_B * Ms)
B_ext = vector(0, tau_RE, 0)
run(dt_step)
j_x77 := -2.01312e+10
J = vector(0, 0, j_x77)
tau_RE = (alpha_R * (j_x77 / 2) * stt_P) / (u_B * Ms)
B_ext = vector(0, tau_RE, 0)
run(dt_step)
j_x78 := -1.91617e+10
J = vector(0, 0, j_x78)
tau_RE = (alpha_R * (j_x78 / 2) * stt_P) / (u_B * Ms)
B_ext = vector(0, tau_RE, 0)
run(dt_step)
j_x79 := -1.83102e+10
J = vector(0, 0, j_x79)
tau_RE = (alpha_R * (j_x79 / 2) * stt_P) / (u_B * Ms)
B_ext = vector(0, tau_RE, 0)
run(dt_step)
j_x80 := -1.75480e+10
J = vector(0, 0, j_x80)
tau_RE = (alpha_R * (j_x80 / 2) * stt_P) / (u_B * Ms)
B_ext = vector(0, tau_RE, 0)
run(dt_step)
j_x81 := -1.68524e+10
J = vector(0, 0, j_x81)
tau_RE = (alpha_R * (j_x81 / 2) * stt_P) / (u_B * Ms)
B_ext = vector(0, tau_RE, 0)
run(dt_step)
j_x82 := -1.62043e+10
J = vector(0, 0, j_x82)
tau_RE = (alpha_R * (j_x82 / 2) * stt_P) / (u_B * Ms)
B_ext = vector(0, tau_RE, 0)
run(dt_step)
j_x83 := -1.55865e+10
J = vector(0, 0, j_x83)
tau_RE = (alpha_R * (j_x83 / 2) * stt_P) / (u_B * Ms)
B_ext = vector(0, tau_RE, 0)
run(dt_step)
j_x84 := -1.49846e+10
J = vector(0, 0, j_x84)
tau_RE = (alpha_R * (j_x84 / 2) * stt_P) / (u_B * Ms)
B_ext = vector(0, tau_RE, 0)
run(dt_step)
j_x85 := -1.43886e+10
J = vector(0, 0, j_x85)
tau_RE = (alpha_R * (j_x85 / 2) * stt_P) / (u_B * Ms)
B_ext = vector(0, tau_RE, 0)
run(dt_step)
j_x86 := -1.37968e+10
J = vector(0, 0, j_x86)
tau_RE = (alpha_R * (j_x86 / 2) * stt_P) / (u_B * Ms)
B_ext = vector(0, tau_RE, 0)
run(dt_step)
j_x87 := -1.32160e+10
J = vector(0, 0, j_x87)
tau_RE = (alpha_R * (j_x87 / 2) * stt_P) / (u_B * Ms)
B_ext = vector(0, tau_RE, 0)
run(dt_step)
j_x88 := -1.26581e+10
J = vector(0, 0, j_x88)
tau_RE = (alpha_R * (j_x88 / 2) * stt_P) / (u_B * Ms)
B_ext = vector(0, tau_RE, 0)
run(dt_step)
j_x89 := -1.21327e+10
J = vector(0, 0, j_x89)
tau_RE = (alpha_R * (j_x89 / 2) * stt_P) / (u_B * Ms)
B_ext = vector(0, tau_RE, 0)
run(dt_step)
j_x90 := -1.16450e+10
J = vector(0, 0, j_x90)
tau_RE = (alpha_R * (j_x90 / 2) * stt_P) / (u_B * Ms)
B_ext = vector(0, tau_RE, 0)
run(dt_step)
j_x91 := -1.11963e+10
J = vector(0, 0, j_x91)
tau_RE = (alpha_R * (j_x91 / 2) * stt_P) / (u_B * Ms)
B_ext = vector(0, tau_RE, 0)
run(dt_step)
j_x92 := -1.07849e+10
J = vector(0, 0, j_x92)
tau_RE = (alpha_R * (j_x92 / 2) * stt_P) / (u_B * Ms)
B_ext = vector(0, tau_RE, 0)
run(dt_step)
j_x93 := -1.04062e+10
J = vector(0, 0, j_x93)
tau_RE = (alpha_R * (j_x93 / 2) * stt_P) / (u_B * Ms)
B_ext = vector(0, tau_RE, 0)
run(dt_step)
j_x94 := -1.00543e+10
J = vector(0, 0, j_x94)
tau_RE = (alpha_R * (j_x94 / 2) * stt_P) / (u_B * Ms)
B_ext = vector(0, tau_RE, 0)
run(dt_step)
j_x95 := -1.00000e+10
J = vector(0, 0, j_x95)
tau_RE = (alpha_R * (j_x95 / 2) * stt_P) / (u_B * Ms)
B_ext = vector(0, tau_RE, 0)
run(dt_step)
j_x96 := -1.00000e+10
J = vector(0, 0, j_x96)
tau_RE = (alpha_R * (j_x96 / 2) * stt_P) / (u_B * Ms)
B_ext = vector(0, tau_RE, 0)
run(dt_step)
j_x97 := -1.00000e+10
J = vector(0, 0, j_x97)
tau_RE = (alpha_R * (j_x97 / 2) * stt_P) / (u_B * Ms)
B_ext = vector(0, tau_RE, 0)
run(dt_step)
j_x98 := -1.00000e+10
J = vector(0, 0, j_x98)
tau_RE = (alpha_R * (j_x98 / 2) * stt_P) / (u_B * Ms)
B_ext = vector(0, tau_RE, 0)
run(dt_step)
j_x99 := -1.00000e+10
J = vector(0, 0, j_x99)
tau_RE = (alpha_R * (j_x99 / 2) * stt_P) / (u_B * Ms)
B_ext = vector(0, tau_RE, 0)
run(dt_step)
j_x100 := -1.00000e+10
J = vector(0, 0, j_x100)
tau_RE = (alpha_R * (j_x100 / 2) * stt_P) / (u_B * Ms)
B_ext = vector(0, tau_RE, 0)
run(dt_step)
j_x101 := -1.00000e+10
J = vector(0, 0, j_x101)
tau_RE = (alpha_R * (j_x101 / 2) * stt_P) / (u_B * Ms)
B_ext = vector(0, tau_RE, 0)
run(dt_step)
j_x102 := -1.00000e+10
J = vector(0, 0, j_x102)
tau_RE = (alpha_R * (j_x102 / 2) * stt_P) / (u_B * Ms)
B_ext = vector(0, tau_RE, 0)
run(dt_step)
j_x103 := -1.00000e+10
J = vector(0, 0, j_x103)
tau_RE = (alpha_R * (j_x103 / 2) * stt_P) / (u_B * Ms)
B_ext = vector(0, tau_RE, 0)
run(dt_step)
j_x104 := -1.00000e+10
J = vector(0, 0, j_x104)
tau_RE = (alpha_R * (j_x104 / 2) * stt_P) / (u_B * Ms)
B_ext = vector(0, tau_RE, 0)
run(dt_step)
j_x105 := -1.00000e+10
J = vector(0, 0, j_x105)
tau_RE = (alpha_R * (j_x105 / 2) * stt_P) / (u_B * Ms)
B_ext = vector(0, tau_RE, 0)
run(dt_step)
j_x106 := -1.00000e+10
J = vector(0, 0, j_x106)
tau_RE = (alpha_R * (j_x106 / 2) * stt_P) / (u_B * Ms)
B_ext = vector(0, tau_RE, 0)
run(dt_step)
j_x107 := -1.00000e+10
J = vector(0, 0, j_x107)
tau_RE = (alpha_R * (j_x107 / 2) * stt_P) / (u_B * Ms)
B_ext = vector(0, tau_RE, 0)
run(dt_step)
j_x108 := -1.00000e+10
J = vector(0, 0, j_x108)
tau_RE = (alpha_R * (j_x108 / 2) * stt_P) / (u_B * Ms)
B_ext = vector(0, tau_RE, 0)
run(dt_step)
j_x109 := -1.00000e+10
J = vector(0, 0, j_x109)
tau_RE = (alpha_R * (j_x109 / 2) * stt_P) / (u_B * Ms)
B_ext = vector(0, tau_RE, 0)
run(dt_step)
j_x110 := -1.00000e+10
J = vector(0, 0, j_x110)
tau_RE = (alpha_R * (j_x110 / 2) * stt_P) / (u_B * Ms)
B_ext = vector(0, tau_RE, 0)
run(dt_step)
j_x111 := -1.00000e+10
J = vector(0, 0, j_x111)
tau_RE = (alpha_R * (j_x111 / 2) * stt_P) / (u_B * Ms)
B_ext = vector(0, tau_RE, 0)
run(dt_step)
j_x112 := -1.00000e+10
J = vector(0, 0, j_x112)
tau_RE = (alpha_R * (j_x112 / 2) * stt_P) / (u_B * Ms)
B_ext = vector(0, tau_RE, 0)
run(dt_step)
j_x113 := -1.00000e+10
J = vector(0, 0, j_x113)
tau_RE = (alpha_R * (j_x113 / 2) * stt_P) / (u_B * Ms)
B_ext = vector(0, tau_RE, 0)
run(dt_step)
j_x114 := -1.00000e+10
J = vector(0, 0, j_x114)
tau_RE = (alpha_R * (j_x114 / 2) * stt_P) / (u_B * Ms)
B_ext = vector(0, tau_RE, 0)
run(dt_step)
j_x115 := -1.00000e+10
J = vector(0, 0, j_x115)
tau_RE = (alpha_R * (j_x115 / 2) * stt_P) / (u_B * Ms)
B_ext = vector(0, tau_RE, 0)
run(dt_step)
j_x116 := -1.00000e+10
J = vector(0, 0, j_x116)
tau_RE = (alpha_R * (j_x116 / 2) * stt_P) / (u_B * Ms)
B_ext = vector(0, tau_RE, 0)
run(dt_step)
j_x117 := -1.00000e+10
J = vector(0, 0, j_x117)
tau_RE = (alpha_R * (j_x117 / 2) * stt_P) / (u_B * Ms)
B_ext = vector(0, tau_RE, 0)
run(dt_step)
j_x118 := -1.00000e+10
J = vector(0, 0, j_x118)
tau_RE = (alpha_R * (j_x118 / 2) * stt_P) / (u_B * Ms)
B_ext = vector(0, tau_RE, 0)
run(dt_step)
j_x119 := -1.00000e+10
J = vector(0, 0, j_x119)
tau_RE = (alpha_R * (j_x119 / 2) * stt_P) / (u_B * Ms)
B_ext = vector(0, tau_RE, 0)
run(dt_step)
j_x120 := -8.30447e-04
J = vector(0, 0, j_x120)
tau_RE = (alpha_R * (j_x120 / 2) * stt_P) / (u_B * Ms)
B_ext = vector(0, tau_RE, 0)
run(dt_step)
j_x121 := -0.00000e+00
J = vector(0, 0, j_x121)
tau_RE = (alpha_R * (j_x121 / 2) * stt_P) / (u_B * Ms)
B_ext = vector(0, tau_RE, 0)
run(dt_step)
j_x122 := -0.00000e+00
J = vector(0, 0, j_x122)
tau_RE = (alpha_R * (j_x122 / 2) * stt_P) / (u_B * Ms)
B_ext = vector(0, tau_RE, 0)
run(dt_step)
j_x123 := -0.00000e+00
J = vector(0, 0, j_x123)
tau_RE = (alpha_R * (j_x123 / 2) * stt_P) / (u_B * Ms)
B_ext = vector(0, tau_RE, 0)
run(dt_step)
j_x124 := -0.00000e+00
J = vector(0, 0, j_x124)
tau_RE = (alpha_R * (j_x124 / 2) * stt_P) / (u_B * Ms)
B_ext = vector(0, tau_RE, 0)
run(dt_step)
j_x125 := -0.00000e+00
J = vector(0, 0, j_x125)
tau_RE = (alpha_R * (j_x125 / 2) * stt_P) / (u_B * Ms)
B_ext = vector(0, tau_RE, 0)
run(dt_step)
j_x126 := -0.00000e+00
J = vector(0, 0, j_x126)
tau_RE = (alpha_R * (j_x126 / 2) * stt_P) / (u_B * Ms)
B_ext = vector(0, tau_RE, 0)
run(dt_step)
j_x127 := -0.00000e+00
J = vector(0, 0, j_x127)
tau_RE = (alpha_R * (j_x127 / 2) * stt_P) / (u_B * Ms)
B_ext = vector(0, tau_RE, 0)
run(dt_step)
j_x128 := -0.00000e+00
J = vector(0, 0, j_x128)
tau_RE = (alpha_R * (j_x128 / 2) * stt_P) / (u_B * Ms)
B_ext = vector(0, tau_RE, 0)
run(dt_step)
j_x129 := -0.00000e+00
J = vector(0, 0, j_x129)
tau_RE = (alpha_R * (j_x129 / 2) * stt_P) / (u_B * Ms)
B_ext = vector(0, tau_RE, 0)
run(dt_step)
j_x130 := -0.00000e+00
J = vector(0, 0, j_x130)
tau_RE = (alpha_R * (j_x130 / 2) * stt_P) / (u_B * Ms)
B_ext = vector(0, tau_RE, 0)
run(dt_step)
j_x131 := -0.00000e+00
J = vector(0, 0, j_x131)
tau_RE = (alpha_R * (j_x131 / 2) * stt_P) / (u_B * Ms)
B_ext = vector(0, tau_RE, 0)
run(dt_step)
j_x132 := -0.00000e+00
J = vector(0, 0, j_x132)
tau_RE = (alpha_R * (j_x132 / 2) * stt_P) / (u_B * Ms)
B_ext = vector(0, tau_RE, 0)
run(dt_step)
j_x133 := -0.00000e+00
J = vector(0, 0, j_x133)
tau_RE = (alpha_R * (j_x133 / 2) * stt_P) / (u_B * Ms)
B_ext = vector(0, tau_RE, 0)
run(dt_step)
j_x134 := -0.00000e+00
J = vector(0, 0, j_x134)
tau_RE = (alpha_R * (j_x134 / 2) * stt_P) / (u_B * Ms)
B_ext = vector(0, tau_RE, 0)
run(dt_step)
j_x135 := -0.00000e+00
J = vector(0, 0, j_x135)
tau_RE = (alpha_R * (j_x135 / 2) * stt_P) / (u_B * Ms)
B_ext = vector(0, tau_RE, 0)
run(dt_step)
j_x136 := -0.00000e+00
J = vector(0, 0, j_x136)
tau_RE = (alpha_R * (j_x136 / 2) * stt_P) / (u_B * Ms)
B_ext = vector(0, tau_RE, 0)
run(dt_step)
j_x137 := -0.00000e+00
J = vector(0, 0, j_x137)
tau_RE = (alpha_R * (j_x137 / 2) * stt_P) / (u_B * Ms)
B_ext = vector(0, tau_RE, 0)
run(dt_step)
j_x138 := -0.00000e+00
J = vector(0, 0, j_x138)
tau_RE = (alpha_R * (j_x138 / 2) * stt_P) / (u_B * Ms)
B_ext = vector(0, tau_RE, 0)
run(dt_step)
j_x139 := -0.00000e+00
J = vector(0, 0, j_x139)
tau_RE = (alpha_R * (j_x139 / 2) * stt_P) / (u_B * Ms)
B_ext = vector(0, tau_RE, 0)
run(dt_step)
j_x140 := -0.00000e+00
J = vector(0, 0, j_x140)
tau_RE = (alpha_R * (j_x140 / 2) * stt_P) / (u_B * Ms)
B_ext = vector(0, tau_RE, 0)
run(dt_step)
j_x141 := -0.00000e+00
J = vector(0, 0, j_x141)
tau_RE = (alpha_R * (j_x141 / 2) * stt_P) / (u_B * Ms)
B_ext = vector(0, tau_RE, 0)
run(dt_step)
j_x142 := -0.00000e+00
J = vector(0, 0, j_x142)
tau_RE = (alpha_R * (j_x142 / 2) * stt_P) / (u_B * Ms)
B_ext = vector(0, tau_RE, 0)
run(dt_step)
j_x143 := -0.00000e+00
J = vector(0, 0, j_x143)
tau_RE = (alpha_R * (j_x143 / 2) * stt_P) / (u_B * Ms)
B_ext = vector(0, tau_RE, 0)
run(dt_step)
j_x144 := -0.00000e+00
J = vector(0, 0, j_x144)
tau_RE = (alpha_R * (j_x144 / 2) * stt_P) / (u_B * Ms)
B_ext = vector(0, tau_RE, 0)
run(dt_step)
j_x145 := -0.00000e+00
J = vector(0, 0, j_x145)
tau_RE = (alpha_R * (j_x145 / 2) * stt_P) / (u_B * Ms)
B_ext = vector(0, tau_RE, 0)
run(dt_step)
j_x146 := -0.00000e+00
J = vector(0, 0, j_x146)
tau_RE = (alpha_R * (j_x146 / 2) * stt_P) / (u_B * Ms)
B_ext = vector(0, tau_RE, 0)
run(dt_step)
j_x147 := -0.00000e+00
J = vector(0, 0, j_x147)
tau_RE = (alpha_R * (j_x147 / 2) * stt_P) / (u_B * Ms)
B_ext = vector(0, tau_RE, 0)
run(dt_step)
j_x148 := -0.00000e+00
J = vector(0, 0, j_x148)
tau_RE = (alpha_R * (j_x148 / 2) * stt_P) / (u_B * Ms)
B_ext = vector(0, tau_RE, 0)
run(dt_step)
j_x149 := -0.00000e+00
J = vector(0, 0, j_x149)
tau_RE = (alpha_R * (j_x149 / 2) * stt_P) / (u_B * Ms)
B_ext = vector(0, tau_RE, 0)
run(dt_step)
j_x150 := -0.00000e+00
J = vector(0, 0, j_x150)
tau_RE = (alpha_R * (j_x150 / 2) * stt_P) / (u_B * Ms)
B_ext = vector(0, tau_RE, 0)
run(dt_step)
j_x151 := -0.00000e+00
J = vector(0, 0, j_x151)
tau_RE = (alpha_R * (j_x151 / 2) * stt_P) / (u_B * Ms)
B_ext = vector(0, tau_RE, 0)
run(dt_step)
j_x152 := -0.00000e+00
J = vector(0, 0, j_x152)
tau_RE = (alpha_R * (j_x152 / 2) * stt_P) / (u_B * Ms)
B_ext = vector(0, tau_RE, 0)
run(dt_step)
j_x153 := -0.00000e+00
J = vector(0, 0, j_x153)
tau_RE = (alpha_R * (j_x153 / 2) * stt_P) / (u_B * Ms)
B_ext = vector(0, tau_RE, 0)
run(dt_step)
j_x154 := -0.00000e+00
J = vector(0, 0, j_x154)
tau_RE = (alpha_R * (j_x154 / 2) * stt_P) / (u_B * Ms)
B_ext = vector(0, tau_RE, 0)
run(dt_step)
j_x155 := -0.00000e+00
J = vector(0, 0, j_x155)
tau_RE = (alpha_R * (j_x155 / 2) * stt_P) / (u_B * Ms)
B_ext = vector(0, tau_RE, 0)
run(dt_step)
j_x156 := -0.00000e+00
J = vector(0, 0, j_x156)
tau_RE = (alpha_R * (j_x156 / 2) * stt_P) / (u_B * Ms)
B_ext = vector(0, tau_RE, 0)
run(dt_step)
j_x157 := -0.00000e+00
J = vector(0, 0, j_x157)
tau_RE = (alpha_R * (j_x157 / 2) * stt_P) / (u_B * Ms)
B_ext = vector(0, tau_RE, 0)
run(dt_step)
j_x158 := -0.00000e+00
J = vector(0, 0, j_x158)
tau_RE = (alpha_R * (j_x158 / 2) * stt_P) / (u_B * Ms)
B_ext = vector(0, tau_RE, 0)
run(dt_step)
j_x159 := -0.00000e+00
J = vector(0, 0, j_x159)
tau_RE = (alpha_R * (j_x159 / 2) * stt_P) / (u_B * Ms)
B_ext = vector(0, tau_RE, 0)
run(dt_step)
//********************************************************************//
//Please cite the following references, relevant for your simulation. //
//See bibtex file in output folder for justification.                 //
//********************************************************************//
//   * Vansteenkiste et al., AIP Adv. 4, 107133 (2014).
//   * Leliaert et al., J. Appl. Phys. 115, 233903 (2014)
//   * Mulkers et al., Phys. Rev. B 95, 144401 (2017).
