# t (s)	mx ()	my ()	mz ()	m_z_yrange7_ ()	I_x (A)
0	0.08394307	3.8444996e-05	-0.6549934	-0.65583736	-8e-06
1.0050518241354398e-11	0.083947815	0.00011483833	-0.65498066	-0.6558248	-8e-06
2.003967935888639e-11	0.08395672	0.00018703818	-0.6549479	-0.6557919	-8e-06
3.000988517474946e-11	0.083961874	0.0002553667	-0.6548954	-0.6557394	-8e-06
4.002825083462155e-11	0.08395933	0.00032152046	-0.6548235	-0.6556673	-8e-06
5.000026573225641e-11	0.083952926	0.0003873864	-0.6547328	-0.6555766	-8e-06
6.002575823261972e-11	0.08394911	0.000454929	-0.6546231	-0.65546674	-8e-06
7.004367833662496e-11	0.08395152	0.0005230784	-0.6544951	-0.65533864	-8e-06
8.00038055306119e-11	0.083958015	0.00058907934	-0.65434974	-0.65519327	-8e-06
9.00210835896868e-11	0.08396359	0.0006518649	-0.6541862	-0.6550295	-8e-06
1.0003873809547894e-10	0.083964705	0.00071147544	-0.65400505	-0.6548482	-8e-06
1.1000111918099295e-10	0.08396229	0.00076984236	-0.653808	-0.654651	-8e-06
1.2001626403216596e-10	0.08396013	0.0008297755	-0.65359306	-0.6544358	-8e-06
1.3003234629509597e-10	0.083961256	0.00089109887	-0.65336144	-0.654204	-8e-06
1.4004858482054113e-10	0.08396568	0.0009521077	-0.6531134	-0.65395576	-8e-06
1.500117901506831e-10	0.08397081	0.0010103653	-0.65285057	-0.65369266	-8e-06
1.6002753501644494e-10	0.08397403	0.0010661425	-0.6525704	-0.6534122	-8e-06
1.7004328249239033e-10	0.08397483	0.0011205841	-0.6522745	-0.65311605	-8e-06
1.8000622268782613e-10	0.08397473	0.0011752915	-0.6519646	-0.6528059	-8e-06
1.9002190715953846e-10	0.08397568	0.0012316735	-0.65163755	-0.6524785	-8e-06
2.000375344974205e-10	0.08397873	0.0012885662	-0.6512952	-0.6521358	-8e-06
2.1000058659210282e-10	0.0839831	0.0013440392	-0.65093935	-0.6517798	-8e-06
2.2001624600865024e-10	0.08398724	0.0013979162	-0.65056664	-0.65140665	-8e-06
2.3003192289677506e-10	0.083990075	0.0014505072	-0.65017885	-0.6510185	-8e-06
2.4004760475798075e-10	0.083991736	0.0015031286	-0.6497761	-0.6506154	-8e-06
2.5001059298349436e-10	0.08399326	0.0015564318	-0.6493607	-0.6501996	-8e-06
2.6002611191855234e-10	0.083995745	0.0016108515	-0.6489282	-0.6497668	-8e-06
2.7004170785943757e-10	0.08399942	0.0016651732	-0.64848095	-0.64931905	-8e-06
2.8000453262955193e-10	0.08400358	0.00171834	-0.64802134	-0.648859	-8e-06
2.9002000170704374e-10	0.084007345	0.0017708945	-0.6475445	-0.6483818	-8e-06
3.0003324164117e-10	0.084010236	0.001823231	-0.6470531	-0.6478899	-8e-06
3.1004499295406333e-10	0.08401254	0.001876115	-0.64654696	-0.64738333	-8e-06
3.2000423734727184e-10	0.08401498	0.0019295494	-0.6460287	-0.64686465	-8e-06
3.300162259021232e-10	0.08401813	0.0019837506	-0.645493	-0.64632845	-8e-06
3.400280977118015e-10	0.08402192	0.0020378728	-0.64494234	-0.6457773	-8e-06
3.500397298546671e-10	0.0840258	0.0020916304	-0.6443768	-0.6452112	-8e-06
3.600510256065805e-10	0.08402923	0.002145226	-0.64379627	-0.6446302	-8e-06
3.7000923903320166e-10	0.08403208	0.002198844	-0.64320403	-0.64403737	-8e-06
3.800197223817455e-10	0.08403472	0.002253385	-0.6425935	-0.64342624	-8e-06
3.9002994008554923e-10	0.084037565	0.0023085547	-0.6419678	-0.6428	-8e-06
4.0004001303575656e-10	0.0840408	0.002364082	-0.6413268	-0.6421584	-8e-06
4.100500030964996e-10	0.08404427	0.0024197057	-0.6406705	-0.64150155	-8e-06
4.2000737361996456e-10	0.08404763	0.0024750638	-0.6400023	-0.6408328	-8e-06
4.300174744170305e-10	0.08405068	0.0025308637	-0.6393152	-0.640145	-8e-06
4.400276625066014e-10	0.084053434	0.002587007	-0.6386124	-0.6394416	-8e-06
4.5003788626466963e-10	0.08405605	0.0026436162	-0.63789403	-0.63872254	-8e-06
4.600481828363255e-10	0.084058724	0.0027006657	-0.63715994	-0.63798773	-8e-06
4.700059022322293e-10	0.08406155	0.002757711	-0.63641405	-0.63724107	-8e-06
4.80016382444255e-10	0.08406448	0.002815166	-0.6356483	-0.6364747	-8e-06
4.900269132475106e-10	0.08406735	0.0028726081	-0.63486665	-0.6356923	-8e-06
5.00037463625821e-10	0.084070005	0.0029300267	-0.6340691	-0.6348941	-8e-06
5.100480250889236e-10	0.08407238	0.0029875236	-0.6332556	-0.6340798	-8e-06
5.200058255138852e-10	0.084074564	0.0030448863	-0.6324305	-0.63325405	-8e-06
5.300162733049669e-10	0.08407678	0.0031026916	-0.6315852	-0.63240796	-8e-06
5.400266753492731e-10	0.08407914	0.0031604448	-0.63072395	-0.6315459	-8e-06
5.500370155850226e-10	0.08408161	0.0032178932	-0.6298469	-0.630668	-8e-06
5.600472842820807e-10	0.08408401	0.003274865	-0.62895393	-0.6297743	-8e-06
5.700048215794296e-10	0.084086165	0.0033310517	-0.6280502	-0.62886965	-8e-06
5.800150046591709e-10	0.08408806	0.0033871364	-0.6271261	-0.62794477	-8e-06
5.900251466511691e-10	0.08408986	0.0034428549	-0.62618655	-0.6270044	-8e-06
6.000352437074306e-10	0.084091775	0.0034980623	-0.62523174	-0.62604874	-8e-06
6.100453210942313e-10	0.08409389	0.0035524885	-0.624262	-0.6250781	-8e-06
6.200026635674367e-10	0.08409609	0.0036055788	-0.62328255	-0.6240978	-8e-06
6.300126286340581e-10	0.08409818	0.0036577678	-0.6222835	-0.6230979	-8e-06
6.40022614142932e-10	0.08410008	0.0037087842	-0.6212702	-0.6220838	-8e-06
6.50032609820326e-10	0.084101856	0.003758675	-0.6202431	-0.6210557	-8e-06
6.600425798072766e-10	0.08410371	0.0038073517	-0.6192024	-0.6200141	-8e-06
6.700525600750423e-10	0.08410581	0.0038545884	-0.6181486	-0.6189594	-8e-06
6.800098423181298e-10	0.08410812	0.0038998493	-0.6170878	-0.6178978	-8e-06
6.900198537912275e-10	0.08411051	0.0039434065	-0.61600935	-0.6168183	-8e-06
7.00029842764882e-10	0.08411284	0.003984951	-0.61491925	-0.6157273	-8e-06
7.100398731770173e-10	0.08411513	0.0040245024	-0.61381793	-0.61462516	-8e-06
7.200499190708052e-10	0.084117524	0.0040620305	-0.61270624	-0.6135125	-8e-06
7.30007242599617e-10	0.08412016	0.004097196	-0.6115905	-0.6123959	-8e-06
7.400172752708145e-10	0.08412311	0.004130122	-0.6104598	-0.6112642	-8e-06
7.500273275989234e-10	0.08412631	0.0041603944	-0.6093205	-0.610124	-8e-06
7.600373813139854e-10	0.084129654	0.004187907	-0.6081735	-0.608976	-8e-06
7.700474239871196e-10	0.08413307	0.004212664	-0.60701936	-0.607821	-8e-06
7.800047886572334e-10	0.08413662	0.0042345803	-0.6058652	-0.60666573	-8e-06
7.900148282787732e-10	0.08414045	0.0042538275	-0.6046993	-0.60549897	-8e-06
8.000249006460158e-10	0.08414466	0.0042701294	-0.60352886	-0.60432756	-8e-06
8.100349469969858e-10	0.08414922	0.0042833243	-0.6023546	-0.6031523	-8e-06
8.200449677515048e-10	0.08415408	0.0042933407	-0.6011774	-0.601974	-8e-06
8.300023214883726e-10	0.08415909	0.004300194	-0.6000042	-0.60079986	-8e-06
8.400123579315713e-10	0.08416431	0.004304039	-0.59882367	-0.5996182	-8e-06
8.500223926398077e-10	0.0841698	0.0043048766	-0.59764254	-0.59843606	-8e-06
8.600324423190822e-10	0.08417561	0.004302705	-0.59646195	-0.5972544	-8e-06
8.700425038258161e-10	0.08418181	0.0042975014	-0.5952827	-0.5960741	-8e-06
8.800525332294212e-10	0.08418832	0.004289298	-0.5941054	-0.5948957	-8e-06
8.90009893533365e-10	0.08419501	0.0042782603	-0.59293735	-0.5937265	-8e-06
9.00019952012849e-10	0.08420188	0.0042644236	-0.5917668	-0.59255475	-8e-06
9.100299917587185e-10	0.08420892	0.004248011	-0.5906005	-0.5913874	-8e-06
9.200400505845941e-10	0.084216185	0.0042291614	-0.58943945	-0.5902251	-8e-06
9.30050110602982e-10	0.08422371	0.004208003	-0.588284	-0.58906853	-8e-06
9.400074954430157e-10	0.08423138	0.0041847858	-0.5871411	-0.58792436	-8e-06
9.500175695443336e-10	0.08423921	0.004159429	-0.585999	-0.58678114	-8e-06
9.600276446471917e-10	0.08424708	0.0041322606	-0.5848645	-0.5856453	-8e-06
9.700377217279816e-10	0.08425497	0.0041035046	-0.5837378	-0.5845175	-8e-06
9.800478218557414e-10	0.0842629	0.0040733814	-0.58261955	-0.583398	-8e-06
9.900052671919514e-10	0.08427081	0.0040422454	-0.5815157	-0.5822929	-8e-06
1.0000154248365582e-09	0.08427881	0.0040099444	-0.5804151	-0.581191	-8e-06
1.010025609822977e-09	0.08428679	0.0039768163	-0.5793237	-0.5800984	-8e-06
1.0200357896031493e-09	0.08429465	0.0039430466	-0.5782417	-0.57901514	-8e-06
1.0300459926422848e-09	0.084302396	0.003908844	-0.5771694	-0.57794154	-8e-06
1.0400035535934318e-09	0.084309936	0.0038745792	-0.5761123	-0.5768831	-8e-06
1.0500138181891714e-09	0.0843174	0.003840065	-0.5750592	-0.57582873	-8e-06
1.0600240852156494e-09	0.08432475	0.0038056294	-0.57401586	-0.57478416	-8e-06
1.0700344083862437e-09	0.08433196	0.0037713966	-0.57298225	-0.5737492	-8e-06
1.0800447381757418e-09	0.08433897	0.0037374895	-0.5719582	-0.57272387	-8e-06
1.0900023910281082e-09	0.084345706	0.0037041942	-0.57094884	-0.5717133	-8e-06
1.1000127633500138e-09	0.08435227	0.00367127	-0.56994355	-0.57070667	-8e-06
1.1100231454411829e-09	0.08435861	0.0036390002	-0.5689474	-0.56970924	-8e-06
1.1200335189680662e-09	0.08436478	0.0036074694	-0.5679602	-0.5687208	-8e-06
1.1300439235445552e-09	0.08437074	0.0035767308	-0.56698173	-0.56774104	-8e-06
1.1400016458351188e-09	0.08437644	0.003546965	-0.5660169	-0.56677496	-8e-06
1.15001208279114e-09	0.08438193	0.0035178773	-0.5650553	-0.565812	-8e-06
1.1600225324704628e-09	0.08438721	0.0034896522	-0.56410164	-0.5648571	-8e-06
1.1700329701731778e-09	0.08439228	0.0034623235	-0.56315583	-0.56391	-8e-06
1.1800434339007259e-09	0.08439715	0.0034359125	-0.56221753	-0.56297046	-8e-06
1.1900012242428626e-09	0.08440178	0.0034105254	-0.5612914	-0.5620431	-8e-06
1.2000117108093452e-09	0.08440626	0.0033858565	-0.5603674	-0.56111777	-8e-06
1.2100222086053012e-09	0.08441054	0.0033619932	-0.5594502	-0.5601994	-8e-06
1.2200327133610055e-09	0.08441466	0.0033389025	-0.5585397	-0.5592875	-8e-06
1.2300432588556412e-09	0.0844186	0.003316569	-0.5576354	-0.558382	-8e-06
1.2400011156877949e-09	0.08442235	0.00329506	-0.5567421	-0.55748737	-8e-06
1.2500116724434455e-09	0.08442596	0.0032740843	-0.55584997	-0.5565939	-8e-06
1.260022246950092e-09	0.08442945	0.0032536855	-0.55496365	-0.5557063	-8e-06
1.2700328265682164e-09	0.0844328	0.0032337885	-0.5540829	-0.5548243	-8e-06
1.2800434141594328e-09	0.08443606	0.0032143365	-0.5532077	-0.5539478	-8e-06
1.2900013268944085e-09	0.08443918	0.0031953657	-0.5523425	-0.5530812	-8e-06
1.3000119465512255e-09	0.084442206	0.0031766032	-0.55147785	-0.5522154	-8e-06
1.310022588125938e-09	0.08444514	0.0031580797	-0.55061847	-0.5513547	-8e-06
1.3200332192325134e-09	0.08444798	0.0031397187	-0.5497643	-0.55049914	-8e-06
1.3300438915033965e-09	0.084450774	0.003121447	-0.548915	-0.54964864	-8e-06
1.3400018655563812e-09	0.08445349	0.003103292	-0.54807544	-0.54880774	-8e-06
1.3500125527195353e-09	0.08445619	0.003084992	-0.54723644	-0.54796743	-8e-06
1.3600232175908953e-09	0.08445882	0.003066569	-0.5464025	-0.54713213	-8e-06
1.370033922401707e-09	0.084461406	0.0030479634	-0.5455737	-0.546302	-8e-06
1.3800446464512992e-09	0.08446396	0.0030291132	-0.54475003	-0.54547703	-8e-06
1.3900026589710672e-09	0.0844665	0.0030100616	-0.5439361	-0.54466164	-8e-06
1.4000133729605972e-09	0.084469035	0.0029905539	-0.54312295	-0.54384726	-8e-06
1.4100240971150779e-09	0.08447159	0.0029706368	-0.5423153	-0.5430383	-8e-06
1.420034836127849e-09	0.08447411	0.0029502534	-0.5415134	-0.54223496	-8e-06
1.4300455465015257e-09	0.08447663	0.002929362	-0.54071695	-0.54143727	-8e-06
1.4400035824872333e-09	0.08447913	0.0029080354	-0.53993064	-0.5406495	-8e-06
1.4500142965712974e-09	0.08448166	0.002886025	-0.53914595	-0.5398636	-8e-06
1.4600250346656435e-09	0.08448423	0.0028634116	-0.53836757	-0.5390837	-8e-06
1.4700357830103032e-09	0.08448681	0.0028401702	-0.5375954	-0.5383102	-8e-06
1.480046523901915e-09	0.084489405	0.0028162643	-0.5368297	-0.53754324	-8e-06
1.490004569730942e-09	0.084491976	0.0027918064	-0.5360747	-0.53678685	-8e-06
1.50001526349589e-09	0.084494576	0.0027665284	-0.53532255	-0.5360333	-8e-06
1.5100259066302204e-09	0.08449721	0.0027405587	-0.53457737	-0.5352868	-8e-06
1.5200364741835638e-09	0.084499866	0.0027138977	-0.5338396	-0.5345475	-8e-06
1.5300463294526454e-09	0.08450257	0.0026865473	-0.533109	-0.5338157	-8e-06
1.540003133045811e-09	0.08450526	0.0026586517	-0.53239006	-0.53309524	-8e-06
1.5500126335562296e-09	0.084507965	0.0026299069	-0.5316749	-0.5323788	-8e-06
1.5600221520287223e-09	0.08451066	0.0026004703	-0.5309679	-0.5316704	-8e-06
1.5700317140878077e-09	0.08451338	0.002570367	-0.5302689	-0.53097004	-8e-06
1.5800412795426475e-09	0.08451613	0.0025396233	-0.52957827	-0.5302781	-8e-06
1.5900508513125571e-09	0.084518895	0.0025082584	-0.52889615	-0.5295946	-8e-06
1.6000077710682152e-09	0.084521666	0.0024764559	-0.52822626	-0.5289234	-8e-06
1.6100173982657013e-09	0.08452442	0.0024438861	-0.52756166	-0.5282575	-8e-06
1.620027016438909e-09	0.084527165	0.0024107362	-0.526906	-0.5276006	-8e-06
1.6300366441983972e-09	0.0845299	0.0023770484	-0.5262596	-0.52695286	-8e-06
1.6400463097426021e-09	0.08453265	0.0023428602	-0.5256224	-0.5263144	-8e-06
1.6500032763002523e-09	0.08453539	0.0023083894	-0.524998	-0.52568865	-8e-06
1.66001295517764e-09	0.08453813	0.0022732937	-0.52437985	-0.5250692	-8e-06
1.6700226770988426e-09	0.08454085	0.0022377665	-0.5237713	-0.5244594	-8e-06
1.6800323967503699e-09	0.084543526	0.0022018396	-0.5231726	-0.5238594	-8e-06
1.6900421336508752e-09	0.08454618	0.0021655497	-0.5225837	-0.52326936	-8e-06
1.7000518633123128e-09	0.08454884	0.002128944	-0.5220049	-0.52268934	-8e-06
1.7100089558238588e-09	0.084551446	0.0020922562	-0.5214391	-0.5221223	-8e-06
1.720018728170413e-09	0.084554054	0.0020551211	-0.5208804	-0.52156246	-8e-06
1.7300285224313366e-09	0.08455661	0.0020177497	-0.5203319	-0.5210129	-8e-06
1.7400383040343662e-09	0.084559135	0.0019801687	-0.5197938	-0.5204736	-8e-06
1.7500481371454813e-09	0.08456163	0.0019424204	-0.5192659	-0.5199446	-8e-06
1.7600052768451109e-09	0.08456407	0.0019047447	-0.51875114	-0.51942873	-8e-06
1.7700150893779442e-09	0.08456648	0.0018667761	-0.518244	-0.51892054	-8e-06
1.7800249088245494e-09	0.084568866	0.0018287405	-0.51774734	-0.5184228	-8e-06
1.7900346957738622e-09	0.08457119	0.0017906498	-0.5172611	-0.5179356	-8e-06
1.8000445161923753e-09	0.08457348	0.0017525388	-0.51678526	-0.51745874	-8e-06
1.8100016670607106e-09	0.084575705	0.0017146353	-0.51632243	-0.51699483	-8e-06
1.820011526374106e-09	0.0845779	0.0016765699	-0.51586753	-0.516539	-8e-06
1.8300213979732295e-09	0.08458006	0.0016385758	-0.515423	-0.51609355	-8e-06
1.8400312871036942e-09	0.08458215	0.0016006724	-0.51498896	-0.5156585	-8e-06
1.8500412093553316e-09	0.0845842	0.0015628785	-0.5145653	-0.51523393	-8e-06
1.8600511326561277e-09	0.08458618	0.0015252148	-0.51415205	-0.5148198	-8e-06
1.870008317225224e-09	0.08458812	0.001487898	-0.51375115	-0.51441807	-8e-06
1.8800182334456734e-09	0.08459003	0.0014505681	-0.5133585	-0.51402456	-8e-06
1.8900281481507875e-09	0.08459189	0.0014134418	-0.512976	-0.5136412	-8e-06
1.9000381118332924e-09	0.08459367	0.0013765298	-0.51260364	-0.5132681	-8e-06
1.910048079637107e-09	0.0845954	0.0013398512	-0.5122414	-0.51290506	-8e-06
1.9200053596650844e-09	0.08459707	0.0013036163	-0.51189107	-0.512554	-8e-06
1.930015337842549e-09	0.08459872	0.0012674571	-0.51154894	-0.512211	-8e-06
1.9400253133810457e-09	0.08460034	0.0012315883	-0.5112166	-0.5118781	-8e-06
1.9500353007995335e-09	0.08460187	0.0011960195	-0.5108941	-0.51155484	-8e-06
1.960045288484592e-09	0.08460335	0.0011607619	-0.5105813	-0.5112415	-8e-06
1.970002559841577e-09	0.08460476	0.0011260083	-0.51027983	-0.5109393	-8e-06
1.9800125667373335e-09	0.08460614	0.0010914068	-0.5099863	-0.5106451	-8e-06
1.9900225657283034e-09	0.08460748	0.0010571607	-0.50970215	-0.5103604	-8e-06
2.0000326025942665e-09	0.084608786	0.0010232793	-0.5094275	-0.5100851	-8e-06
2.0100426403900806e-09	0.08461001	0.0009897653	-0.509162	-0.50981915	-8e-06
2.020000042604852e-09	0.0846112	0.0009567991	-0.50890714	-0.5095637	-8e-06
2.0300101306527775e-09	0.084612325	0.0009240393	-0.50865996	-0.50931597	-8e-06
2.040020202937638e-09	0.08461343	0.0008916727	-0.50842166	-0.5090772	-8e-06
2.0500302775836857e-09	0.084614486	0.0008597149	-0.5081923	-0.50884736	-8e-06
2.0600403650329136e-09	0.08461549	0.00082816475	-0.50797164	-0.5086263	-8e-06
2.070050475637156e-09	0.08461643	0.0007970291	-0.5077597	-0.5084138	-8e-06
2.08000788478638e-09	0.084617354	0.0007664663	-0.5075573	-0.508211	-8e-06
2.0900180225394387e-09	0.08461824	0.0007361556	-0.5073622	-0.5080155	-8e-06
2.100028169174071e-09	0.08461908	0.00070627296	-0.50717545	-0.50782835	-8e-06
2.1100383147081677e-09	0.084619865	0.00067682547	-0.5069968	-0.5076493	-8e-06
2.1200484745410577e-09	0.08462062	0.00064781075	-0.5068263	-0.5074784	-8e-06
2.1300059249449674e-09	0.08462132	0.00061937654	-0.5066645	-0.5073164	-8e-06
2.1400160714479684e-09	0.084621996	0.0005912212	-0.5065097	-0.50716126	-8e-06
2.1500262211574742e-09	0.08462264	0.0005634988	-0.5063627	-0.50701386	-8e-06
2.160036400811135e-09	0.08462323	0.0005362225	-0.50622314	-0.506874	-8e-06
2.170046608544641e-09	0.084623806	0.00050938723	-0.5060912	-0.50674176	-8e-06
2.1800040999035416e-09	0.08462433	0.00048312586	-0.5059671	-0.5066175	-8e-06
2.19001427366622e-09	0.08462483	0.00045715406	-0.5058496	-0.50649977	-8e-06
2.2000245233806614e-09	0.0846253	0.00043162625	-0.5057392	-0.50638914	-8e-06
2.2100347463162834e-09	0.08462573	0.0004065391	-0.50563586	-0.50628555	-8e-06
2.2200449674123178e-09	0.08462612	0.0003818812	-0.5055395	-0.50618887	-8e-06
2.2300024741172857e-09	0.084626496	0.00035779024	-0.5054501	-0.5060994	-8e-06
2.240012643402982e-09	0.08462683	0.00033400455	-0.505367	-0.50601614	-8e-06
2.2500228571853306e-09	0.08462714	0.00031064157	-0.50529045	-0.50593936	-8e-06
2.260033079035393e-09	0.084627435	0.00028771083	-0.5052201	-0.50586903	-8e-06
2.2700432648215305e-09	0.084627695	0.00026521197	-0.5051563	-0.50580496	-8e-06
2.2800007972081523e-09	0.08462791	0.000243256	-0.50509876	-0.5057474	-8e-06
2.2900110157195554e-09	0.08462812	0.00022160138	-0.505047	-0.5056955	-8e-06
2.300021258721491e-09	0.08462831	0.000200364	-0.50500125	-0.5056497	-8e-06
2.3100314854486293e-09	0.08462846	0.00017953779	-0.50496125	-0.5056096	-8e-06
2.3200416987513815e-09	0.0846286	0.0001591299	-0.50492704	-0.5055753	-8e-06
2.3300519198243847e-09	0.08462871	0.00013914297	-0.5048983	-0.50554657	-8e-06
2.340009452263685e-09	0.08462879	0.00011966864	-0.5048753	-0.50552344	-8e-06
2.350019690380943e-09	0.084628865	0.00010047992	-0.5048574	-0.5055055	-8e-06
2.3600299277423864e-09	0.08462892	8.169581e-05	-0.50484484	-0.5054929	-8e-06
2.370040166820398e-09	0.08462894	6.330758e-05	-0.5048374	-0.5054855	-8e-06
2.380050422655556e-09	0.08462897	4.531294e-05	-0.5048351	-0.50548315	-8e-06
2.390007953317398e-09	0.08462891	2.781123e-05	-0.5048376	-0.50548565	-8e-06
2.400018195484023e-09	0.08462888	1.0597507e-05	-0.50484496	-0.50549304	-8e-06
2.410028446635087e-09	0.08462888	-6.2252084e-06	-0.504857	-0.50550514	-8e-06
2.420038715637279e-09	0.084628835	-2.2671322e-05	-0.5048737	-0.5055219	-8e-06
2.4300489442382883e-09	0.084628776	-3.875335e-05	-0.5048949	-0.5055431	-8e-06
2.4400064901418995e-09	0.08462869	-5.435298e-05	-0.5049204	-0.5055686	-8e-06
2.450016731960099e-09	0.084628545	-6.967147e-05	-0.5049503	-0.50559866	-8e-06
2.460026981597347e-09	0.08462841	-8.463979e-05	-0.50498444	-0.50563276	-8e-06
2.470037207772223e-09	0.0846283	-9.9237164e-05	-0.5050227	-0.50567114	-8e-06
2.4800474711528383e-09	0.08462817	-0.00011347016	-0.5050649	-0.50571346	-8e-06
2.490005024706305e-09	0.08462803	-0.00012727817	-0.5051108	-0.5057594	-8e-06
2.5000152670260397e-09	0.08462787	-0.00014079959	-0.50516075	-0.5058095	-8e-06
2.5100254980317954e-09	0.08462766	-0.00015398055	-0.50521445	-0.5058633	-8e-06
2.5200357361738587e-09	0.08462744	-0.00016682794	-0.50527173	-0.5059207	-8e-06
2.530045976343237e-09	0.084627256	-0.00017931432	-0.5053325	-0.5059817	-8e-06
2.5400035543772613e-09	0.08462707	-0.00019139251	-0.5053965	-0.5060457	-8e-06
2.5500137979555457e-09	0.08462686	-0.00020320356	-0.50546396	-0.5061134	-8e-06
2.560024008175484e-09	0.08462663	-0.00021467955	-0.5055349	-0.5061844	-8e-06
2.570034237479043e-09	0.08462638	-0.0002258426	-0.5056088	-0.50625855	-8e-06
2.5800444535404475e-09	0.08462612	-0.00023668329	-0.5056859	-0.50633574	-8e-06
2.5900020118739396e-09	0.08462587	-0.0002471463	-0.5057655	-0.5064155	-8e-06
2.6000122131302083e-09	0.08462561	-0.00025732914	-0.50584835	-0.5064986	-8e-06
2.610022428574714e-09	0.08462535	-0.00026718975	-0.5059341	-0.50658447	-8e-06
2.6200326499968924e-09	0.08462509	-0.00027674634	-0.5060225	-0.50667316	-8e-06
2.630042832573789e-09	0.08462481	-0.0002860058	-0.5061136	-0.5067643	-8e-06
2.6400002987670208e-09	0.084624514	-0.00029491374	-0.5062067	-0.5068577	-8e-06
2.6500104158356203e-09	0.08462422	-0.00030355825	-0.5063028	-0.5069539	-8e-06
2.660020527753453e-09	0.084623925	-0.0003118974	-0.50640124	-0.5070526	-8e-06
2.6700306093735192e-09	0.08462361	-0.0003199413	-0.506502	-0.5071535	-8e-06
2.68004071054356e-09	0.08462331	-0.00032769228	-0.5066049	-0.5072567	-8e-06
2.6900507977355377e-09	0.084623	-0.00033515692	-0.50671	-0.507362	-8e-06
2.7000082127414186e-09	0.084622696	-0.00034229498	-0.50681657	-0.5074688	-8e-06
2.7100182799129135e-09	0.0846224	-0.00034918796	-0.50692564	-0.5075782	-8e-06
2.7200283274751987e-09	0.08462208	-0.0003558015	-0.50703675	-0.50768936	-8e-06
2.7300383405905055e-09	0.08462174	-0.0003621326	-0.50714964	-0.50780255	-8e-06
2.7400483542646117e-09	0.08462141	-0.00036818645	-0.5072641	-0.5079174	-8e-06
2.7500056683062113e-09	0.084621064	-0.00037393745	-0.50737983	-0.5080333	-8e-06
2.760015700206189e-09	0.08462073	-0.000379453	-0.50749767	-0.50815135	-8e-06
2.7700257314860262e-09	0.08462041	-0.00038470284	-0.50761706	-0.508271	-8e-06
2.7800357438989794e-09	0.08462008	-0.00038969115	-0.5077378	-0.50839204	-8e-06
2.79004575692541e-09	0.084619746	-0.00039441517	-0.50786	-0.5085145	-8e-06
2.8000030929146467e-09	0.08461941	-0.00039885545	-0.5079829	-0.5086376	-8e-06
2.8100130978210438e-09	0.08461907	-0.0004030634	-0.50810766	-0.5087626	-8e-06
2.820023105165882e-09	0.08461874	-0.00040702755	-0.5082335	-0.50888884	-8e-06
2.83003309682588e-09	0.084618405	-0.00041074277	-0.5083605	-0.50901604	-8e-06
2.8400430842566935e-09	0.084618054	-0.0004142122	-0.50848854	-0.50914437	-8e-06
2.850000395815155e-09	0.084617704	-0.0004174232	-0.50861686	-0.50927293	-8e-06
2.8600104076065975e-09	0.08461736	-0.00042040253	-0.50874674	-0.50940305	-8e-06
2.870020397276464e-09	0.084617026	-0.0004231501	-0.5088774	-0.509534	-8e-06
2.880030388736611e-09	0.08461669	-0.0004256609	-0.5090089	-0.5096658	-8e-06
2.8900403920524026e-09	0.08461637	-0.00042794785	-0.509141	-0.5097982	-8e-06
2.9000503929539736e-09	0.08461602	-0.00043001215	-0.5092738	-0.50993127	-8e-06
2.910007737741832e-09	0.08461567	-0.0004318448	-0.5094065	-0.51006424	-8e-06
2.920017754435765e-09	0.08461533	-0.0004334549	-0.5095404	-0.5101985	-8e-06
2.9300277572932243e-09	0.08461499	-0.00043484275	-0.5096747	-0.51033306	-8e-06
2.9400377575395588e-09	0.084614664	-0.00043601374	-0.5098095	-0.51046807	-8e-06
2.950047776360069e-09	0.084614344	-0.00043697495	-0.5099445	-0.51060337	-8e-06
2.9600051103548894e-09	0.084614016	-0.00043772964	-0.5100791	-0.51073825	-8e-06
2.9700151260537302e-09	0.08461369	-0.00043828954	-0.5102146	-0.51087415	-8e-06
2.9800251367298415e-09	0.084613346	-0.00043864147	-0.51035035	-0.51101005	-8e-06
2.9900351761688793e-09	0.08461301	-0.00043878934	-0.5104861	-0.5111462	-8e-06
3e-09	0.0846127	-0.000438736	-0.5106213	-0.51128167	-8e-06
3.0100105380681312e-09	0.08709267	-0.0011241616	-0.5103061	-0.51096267	-8e-06
3.020020548229007e-09	0.08812614	-0.003974806	-0.5099628	-0.51061755	-8e-06
3.0300305724039155e-09	0.08702986	-0.0061413604	-0.50960195	-0.510258	-8e-06
3.040040572216903e-09	0.084864974	-0.0058132517	-0.5092128	-0.50987005	-8e-06
3.0500505886898453e-09	0.08342349	-0.0034412467	-0.50877804	-0.5094355	-8e-06
3.060007929969735e-09	0.08373928	-0.0011855486	-0.5082952	-0.50895005	-8e-06
3.070017962392642e-09	0.085445985	-0.00080533384	-0.5077662	-0.5084181	-8e-06
3.0800279823416394e-09	0.08711568	-0.0022309045	-0.5072046	-0.5078551	-8e-06
3.0900380029659955e-09	0.08740874	-0.0039156424	-0.5066183	-0.5072684	-8e-06
3.1000480483617854e-09	0.08616484	-0.004371252	-0.50600505	-0.5066551	-8e-06
3.110005413089188e-09	0.08449522	-0.0033360186	-0.5053612	-0.50601006	-8e-06
3.120015453642748e-09	0.08376738	-0.0017690893	-0.50467825	-0.5053251	-8e-06
3.130025472803884e-09	0.084518224	-0.0009047947	-0.50396293	-0.5046075	-8e-06
3.1400355149089008e-09	0.08603589	-0.0012285006	-0.5032173	-0.5038602	-8e-06
3.150045549990574e-09	0.08702062	-0.0022191147	-0.50244355	-0.5030856	-8e-06
3.1600029310798916e-09	0.08671152	-0.0029145868	-0.50164706	-0.5022877	-8e-06
3.1700129854183134e-09	0.08545051	-0.002782127	-0.5008196	-0.50145835	-8e-06
3.1800230180479987e-09	0.084327385	-0.0019659877	-0.49996766	-0.5006044	-8e-06
3.1900330513453896e-09	0.0842515	-0.0010924371	-0.4990919	-0.49972695	-8e-06
3.2000430950462637e-09	0.08521537	-0.000782405	-0.49818975	-0.4988231	-8e-06
3.210000438017049e-09	0.086337544	-0.0011296619	-0.49726442	-0.4978961	-8e-06
3.220010495215178e-09	0.08668213	-0.0017091669	-0.49630854	-0.49693838	-8e-06
3.230020536737325e-09	0.086018816	-0.0019935346	-0.4953306	-0.4959585	-8e-06
3.240030572072146e-09	0.08498091	-0.0017448135	-0.49433318	-0.49495912	-8e-06
3.250040611843886e-09	0.08445596	-0.0011521282	-0.49331644	-0.4939404	-8e-06
3.260050649769775e-09	0.084821485	-0.0006513709	-0.49227825	-0.49290046	-8e-06
3.27000801648728e-09	0.08568441	-0.000551461	-0.49122158	-0.4918421	-8e-06
3.2800180565217424e-09	0.08630236	-0.00081602874	-0.4901344	-0.49075308	-8e-06
3.2900280972692285e-09	0.086193845	-0.0011509063	-0.48902518	-0.48964167	-8e-06
3.3000381269581565e-09	0.08551196	-0.0012510488	-0.4878979	-0.48851222	-8e-06
3.3100481538287593e-09	0.08485999	-0.0010135823	-0.48675445	-0.48736697	-8e-06
3.3200055009137598e-09	0.08475966	-0.000587407	-0.48559895	-0.48620987	-8e-06
3.3300155354986027e-09	0.08523612	-0.00024513106	-0.48441494	-0.48502415	-8e-06
3.340025567483871e-09	0.08584786	-0.00018982569	-0.48320633	-0.48381367	-8e-06
3.3500356032195693e-09	0.086084664	-0.0003928838	-0.4819749	-0.48258	-8e-06
3.3600456531418016e-09	0.085788526	-0.00063185784	-0.48072383	-0.48132688	-8e-06
3.3700029966384504e-09	0.08524859	-0.00066049956	-0.47946197	-0.48006314	-8e-06
3.3800130280744913e-09	0.0849128	-0.00039582083	-0.47817484	-0.47877437	-8e-06
3.3900230408208375e-09	0.08502948	5.4983298e-06	-0.47686544	-0.47746342	-8e-06
3.4000330853712547e-09	0.08546009	0.00027302693	-0.4755306	-0.47612676	-8e-06
3.4100431051302826e-09	0.08582577	0.00025506903	-0.47416946	-0.47476363	-8e-06
3.420000458830644e-09	0.085831694	4.424274e-05	-0.47279158	-0.47338372	-8e-06
3.4300104686372134e-09	0.08549715	-0.000105558334	-0.47138458	-0.4719748	-8e-06
3.4400204869510852e-09	0.08511589	1.0029574e-05	-0.46995538	-0.47054404	-8e-06
3.4500305103634714e-09	0.084996134	0.00036047032	-0.46850097	-0.46908802	-8e-06
3.460040521861578e-09	0.08520523	0.0007134681	-0.46701753	-0.46760282	-8e-06
3.470050553021532e-09	0.08553426	0.00085076806	-0.46550325	-0.4660867	-8e-06
3.480007867272049e-09	0.0856943	0.0007578885	-0.46396738	-0.46454874	-8e-06
3.490017896349729e-09	0.08556263	0.0006180633	-0.46239513	-0.46297464	-8e-06
3.5000278925682e-09	0.08526221	0.0006439447	-0.46079493	-0.4613728	-8e-06
3.5100379206734928e-09	0.08504153	0.0008938561	-0.45916483	-0.45974106	-8e-06
3.5200479491622764e-09	0.08505975	0.0012338329	-0.45750198	-0.45807654	-8e-06
3.530005289291665e-09	0.08526474	0.0014659989	-0.4558137	-0.45638633	-8e-06
3.5400152967963523e-09	0.08545985	0.0015056216	-0.45408222	-0.45465288	-8e-06
3.550025316885592e-09	0.0854723	0.001435637	-0.452318	-0.45288673	-8e-06
3.5600352923095486e-09	0.08529498	0.001424041	-0.4505222	-0.45108914	-8e-06
3.5700452804427544e-09	0.08507475	0.0015731697	-0.44869468	-0.44925994	-8e-06
3.580002583125376e-09	0.08497765	0.0018386451	-0.44684458	-0.44740805	-8e-06
3.59001255624648e-09	0.08505172	0.0020859917	-0.44495183	-0.44551334	-8e-06
3.6000225259280744e-09	0.085203744	0.002205064	-0.44302684	-0.4435864	-8e-06
3.610032519023737e-09	0.08528724	0.0022012608	-0.44107187	-0.4416294	-8e-06
3.6200424522590453e-09	0.08522609	0.0021759614	-0.43908945	-0.4396451	-8e-06
3.6300524180393445e-09	0.08506782	0.0022324575	-0.4370816	-0.4376355	-8e-06
3.640009715961471e-09	0.08493403	0.0023890077	-0.43506068	-0.43561277	-8e-06
3.6500196809163044e-09	0.08491417	0.002575007	-0.43300673	-0.43355703	-8e-06
3.6600296663208956e-09	0.085000545	0.0026950347	-0.4309324	-0.43148074	-8e-06
3.67003961896575e-09	0.085100986	0.0027124896	-0.42884055	-0.429387	-8e-06
3.6800495580729364e-09	0.085122205	0.0026713833	-0.42673463	-0.42727923	-8e-06
3.6900068690291808e-09	0.08504598	0.0026495424	-0.42462897	-0.4251719	-8e-06
3.700016848544645e-09	0.084934525	0.0026905204	-0.42250437	-0.4230455	-8e-06
3.7100267798296256e-09	0.08487436	0.0027735503	-0.42037418	-0.42091355	-8e-06
3.720036763294932e-09	0.08490339	0.0028385613	-0.41824082	-0.41877842	-8e-06
3.730046737898e-09	0.08498579	0.0028408598	-0.41610676	-0.4166426	-8e-06
3.740004020713542e-09	0.085047916	0.0027852887	-0.41398612	-0.41452017	-8e-06
3.750014012933741e-09	0.08504157	0.002713571	-0.41185912	-0.41239142	-8e-06
3.760023984952773e-09	0.08497824	0.002667658	-0.4097395	-0.41027012	-8e-06
3.770033977052197e-09	0.084915355	0.0026573457	-0.40762916	-0.4081579	-8e-06
3.780043923689245e-09	0.08490525	0.002658902	-0.4055296	-0.4060565	-8e-06
3.790001208636726e-09	0.084953286	0.0026390208	-0.40345305	-0.40397817	-8e-06
3.800011201081185e-09	0.085019216	0.0025810066	-0.401379	-0.40190214	-8e-06
3.8100211487682065e-09	0.08505245	0.002495236	-0.39931986	-0.39984107	-8e-06
3.820031134636976e-09	0.08503394	0.0024083261	-0.39727694	-0.3977961	-8e-06
3.830041091192603e-09	0.08498796	0.0023422535	-0.3952512	-0.3957683	-8e-06
3.840051068764001e-09	0.084958576	0.0022990631	-0.39324334	-0.39375836	-8e-06
3.850008345871853e-09	0.08497259	0.0022618175	-0.39126423	-0.39177707	-8e-06
3.860018329385614e-09	0.08502021	0.002208537	-0.3892933	-0.3898039	-8e-06
3.870028304341588e-09	0.08506561	0.0021300558	-0.38734156	-0.38784978	-8e-06
3.8800383064258645e-09	0.085077986	0.0020359813	-0.38540938	-0.38591534	-8e-06
3.8900482999127905e-09	0.085055806	0.0019467648	-0.38349742	-0.38400096	-8e-06