# t (s)	mx ()	my ()	mz ()	m_z_yrange7_ ()	I_x (A)	ext_dwxpos (m)
0	0.10742088	0.000119078424	-0.6617592	-0.6628936	-8e-06	1.36209675e-08
1.0038346387550998e-11	0.10742111	0.00017302671	-0.6617505	-0.66288507	-8e-06	1.3620997e-08
2.001467384558249e-11	0.10742183	0.00022530931	-0.6617277	-0.6628621	-8e-06	1.3621087e-08
3.005048175091398e-11	0.10742233	0.00027616695	-0.66169083	-0.66282505	-8e-06	1.3621151e-08
4.0033592867162415e-11	0.10742272	0.00032457017	-0.66164106	-0.66277504	-8e-06	1.36212e-08
5.000422298955697e-11	0.107423246	0.00037084793	-0.6615788	-0.66271234	-8e-06	1.3621268e-08
6.002975984666093e-11	0.10742408	0.00041511658	-0.6615044	-0.6626374	-8e-06	1.3621373e-08
7.000007553100093e-11	0.10742537	0.00045638732	-0.66141933	-0.66255176	-8e-06	1.3621538e-08
8.002548005208773e-11	0.10742709	0.0004946065	-0.66132355	-0.6624553	-8e-06	1.3621755e-08
9.00518993887794e-11	0.10742898	0.0005293662	-0.6612184	-0.6623496	-8e-06	1.3621994e-08
1.0002455955146234e-10	0.1074308	0.00056039647	-0.6611055	-0.662236	-8e-06	1.3622227e-08
1.1004957354978932e-10	0.10743256	0.0005880746	-0.6609849	-0.6621144	-8e-06	1.362245e-08
1.2002151779797876e-10	0.10743441	0.00061195303	-0.6608586	-0.6619872	-8e-06	1.36226825e-08
1.3004643424206456e-10	0.1074365	0.0006322475	-0.6607263	-0.661854	-8e-06	1.3622948e-08
1.400189516709165e-10	0.107438974	0.0006485685	-0.6605907	-0.6617174	-8e-06	1.3623261e-08
1.5003508075806449e-10	0.10744164	0.00066090084	-0.6604513	-0.66157717	-8e-06	1.36236e-08
1.6004818952607636e-10	0.10744428	0.00066914596	-0.6603101	-0.6614349	-8e-06	1.3623935e-08
1.7000908621428865e-10	0.107446745	0.000673441	-0.66016865	-0.66129243	-8e-06	1.3624248e-08
1.8002302658371333e-10	0.107449174	0.00067400205	-0.66002667	-0.6611493	-8e-06	1.3624556e-08
1.9003725536468154e-10	0.1074517	0.0006708397	-0.6598857	-0.66100746	-8e-06	1.3624876e-08
2.0005166030719508e-10	0.10745435	0.00066401303	-0.65974706	-0.66086775	-8e-06	1.3625211e-08
2.1001340772050605e-10	0.10745705	0.0006536896	-0.6596121	-0.6607319	-8e-06	1.3625553e-08
2.2002793824381262e-10	0.10745974	0.0006398508	-0.6594806	-0.6605994	-8e-06	1.3625894e-08
2.3004245386557107e-10	0.107462294	0.0006227077	-0.6593541	-0.66047186	-8e-06	1.3626218e-08
2.400042316802248e-10	0.10746464	0.00060263893	-0.65923375	-0.66035074	-8e-06	1.3626517e-08
2.500186899631357e-10	0.10746688	0.0005797036	-0.65911937	-0.66023546	-8e-06	1.3626799e-08
2.6003318233552764e-10	0.107469045	0.0005542442	-0.6590122	-0.6601274	-8e-06	1.36270755e-08
2.700477897003818e-10	0.107471175	0.0005264403	-0.6589128	-0.66002727	-8e-06	1.3627345e-08
2.8000992129252896e-10	0.1074732	0.00049665774	-0.6588222	-0.6599361	-8e-06	1.3627602e-08
2.9002496007134615e-10	0.10747505	0.00046484053	-0.6587399	-0.6598531	-8e-06	1.3627836e-08
3.0004016369547837e-10	0.10747667	0.0004314258	-0.65866697	-0.6597796	-8e-06	1.3628042e-08
3.10002758512945e-10	0.10747804	0.00039692558	-0.6586039	-0.65971607	-8e-06	1.3628217e-08
3.200178554178088e-10	0.10747924	0.0003612781	-0.6585504	-0.6596621	-8e-06	1.3628368e-08
3.300322064253719e-10	0.10748027	0.0003249412	-0.6585068	-0.6596182	-8e-06	1.3628498e-08
3.400451993511688e-10	0.10748117	0.00028816258	-0.65847343	-0.6595845	-8e-06	1.3628612e-08
3.500048018321428e-10	0.10748187	0.00025136588	-0.65845037	-0.6595611	-8e-06	1.3628701e-08
3.6001730459674325e-10	0.10748235	0.00021445738	-0.65843713	-0.6595478	-8e-06	1.3628762e-08
3.700302461176124e-10	0.107482575	0.00017792193	-0.65843385	-0.65954447	-8e-06	1.362879e-08
3.8004366049512843e-10	0.10748256	0.00014203078	-0.6584404	-0.659551	-8e-06	1.3628788e-08
3.900048423651163e-10	0.107482366	0.00010721315	-0.6584563	-0.65956706	-8e-06	1.3628764e-08
4.0001673735072717e-10	0.10748204	7.333966e-05	-0.65848154	-0.65959245	-8e-06	1.3628723e-08
4.1002595906128295e-10	0.10748155	4.0803923e-05	-0.65851563	-0.65962666	-8e-06	1.362866e-08
4.200354737607286e-10	0.10748089	9.783937e-06	-0.658558	-0.6596694	-8e-06	1.36285765e-08
4.300452610619237e-10	0.10748003	-1.9512718e-05	-0.6586083	-0.65972006	-8e-06	1.3628468e-08
4.4000265951327006e-10	0.10747898	-4.6759124e-05	-0.6586657	-0.6597778	-8e-06	1.3628336e-08
4.5001301511580236e-10	0.10747781	-7.207211e-05	-0.6587301	-0.65984267	-8e-06	1.36281875e-08
4.600236679144835e-10	0.107476555	-9.5148316e-05	-0.65880066	-0.6599137	-8e-06	1.3628028e-08
4.700345632984395e-10	0.1074752	-0.0001158975	-0.65887684	-0.6599904	-8e-06	1.3627855e-08
4.800457085632709e-10	0.10747371	-0.00013425248	-0.65895766	-0.66007185	-8e-06	1.3627668e-08
4.900043951459945e-10	0.10747217	-0.0001500247	-0.6590424	-0.66015714	-8e-06	1.3627471e-08
5.000159769419683e-10	0.107470535	-0.00016330594	-0.6591309	-0.6602464	-8e-06	1.3627262e-08
5.100278017130171e-10	0.10746881	-0.0001739538	-0.6592222	-0.6603382	-8e-06	1.3627045e-08
5.200396752993706e-10	0.10746711	-0.0001819738	-0.6593154	-0.66043216	-8e-06	1.3626829e-08
5.300515703781045e-10	0.107465394	-0.0001873594	-0.65941	-0.6605274	-8e-06	1.3626611e-08
5.400109123996337e-10	0.10746367	-0.00019012015	-0.6595047	-0.6606228	-8e-06	1.3626393e-08
5.500230524244499e-10	0.10746191	-0.00019033675	-0.65959966	-0.6607184	-8e-06	1.36261695e-08
5.600352656143015e-10	0.10746014	-0.00018802902	-0.6596938	-0.6608133	-8e-06	1.3625946e-08
5.700474878692148e-10	0.10745842	-0.00018324085	-0.6597865	-0.6609066	-8e-06	1.3625726e-08
5.800070337024516e-10	0.10745676	-0.00017610534	-0.6598765	-0.6609973	-8e-06	1.3625517e-08
5.900191783590713e-10	0.10745517	-0.00016667589	-0.6599643	-0.6610857	-8e-06	1.3625314e-08
6.000312721666295e-10	0.107453644	-0.000155121	-0.66004884	-0.66117084	-8e-06	1.3625122e-08
6.10043267734538e-10	0.107452154	-0.00014155846	-0.6601294	-0.661252	-8e-06	1.3624931e-08
6.200024224398955e-10	0.10745071	-0.00012620942	-0.6602053	-0.66132843	-8e-06	1.3624749e-08
6.300141159050136e-10	0.10744936	-0.0001090483	-0.66027665	-0.6614004	-8e-06	1.3624579e-08
6.400256298240057e-10	0.10744814	-9.02927e-05	-0.6603428	-0.661467	-8e-06	1.3624423e-08
6.500370553303881e-10	0.10744699	-7.014069e-05	-0.6604034	-0.661528	-8e-06	1.36242795e-08
6.60048352413524e-10	0.10744597	-4.8788814e-05	-0.6604579	-0.6615829	-8e-06	1.362415e-08
6.700067860383814e-10	0.10744507	-2.6557473e-05	-0.660506	-0.66163146	-8e-06	1.3624034e-08
6.800177437567313e-10	0.10744425	-3.3584176e-06	-0.66054803	-0.6616737	-8e-06	1.362393e-08
6.900285304827283e-10	0.10744351	2.0528065e-05	-0.6605834	-0.6617094	-8e-06	1.3623838e-08
7.000392047732121e-10	0.10744292	4.488587e-05	-0.660612	-0.66173834	-8e-06	1.36237635e-08
7.100498043642364e-10	0.10744244	6.955204e-05	-0.6606339	-0.66176033	-8e-06	1.36237e-08
7.200076259354413e-10	0.10744209	9.417158e-05	-0.6606489	-0.66177547	-8e-06	1.3623657e-08
7.300181216385913e-10	0.10744188	0.000118836746	-0.6606573	-0.661784	-8e-06	1.3623631e-08
7.40028569486336e-10	0.10744175	0.0001432467	-0.6606589	-0.66178566	-8e-06	1.3623613e-08
7.500390429512325e-10	0.10744179	0.00016719385	-0.66065425	-0.66178083	-8e-06	1.3623618e-08
7.600495580204704e-10	0.107441865	0.00019057692	-0.660643	-0.6617696	-8e-06	1.3623627e-08
7.700074420586239e-10	0.107442	0.00021310359	-0.6606258	-0.66175234	-8e-06	1.3623645e-08
7.800181344734094e-10	0.1074423	0.00023481548	-0.66060257	-0.66172904	-8e-06	1.36236835e-08
7.900289194189188e-10	0.10744274	0.000255507	-0.6605737	-0.66169995	-8e-06	1.3623739e-08
8.0003982002834e-10	0.10744328	0.00027503475	-0.66053975	-0.66166574	-8e-06	1.3623808e-08
8.100507809992741e-10	0.10744394	0.0002932649	-0.6605008	-0.6616265	-8e-06	1.3623892e-08
8.200091468676763e-10	0.10744463	0.00031000783	-0.6604575	-0.66158307	-8e-06	1.3623978e-08
8.300202976172388e-10	0.107445344	0.0003253579	-0.66041005	-0.66153514	-8e-06	1.3624069e-08
8.400315431722041e-10	0.107446164	0.00033914455	-0.6603588	-0.6614836	-8e-06	1.3624174e-08
8.500428533201571e-10	0.10744711	0.00035131216	-0.66030437	-0.6614288	-8e-06	1.3624294e-08
8.600015236054448e-10	0.10744814	0.0003617725	-0.66024756	-0.6613716	-8e-06	1.3624424e-08
8.700129461292239e-10	0.10744918	0.0003705491	-0.66018814	-0.66131186	-8e-06	1.3624557e-08
8.80024397336506e-10	0.10745022	0.0003775332	-0.660127	-0.6612501	-8e-06	1.3624688e-08
8.900358193180179e-10	0.107451305	0.00038275783	-0.66006446	-0.6611872	-8e-06	1.3624825e-08
9.000472669903618e-10	0.10745245	0.0003862376	-0.6600012	-0.6611234	-8e-06	1.3624971e-08
9.100060371045605e-10	0.10745361	0.000387982	-0.6599378	-0.6610596	-8e-06	1.3625118e-08
9.20017521182469e-10	0.10745481	0.0003880201	-0.65987426	-0.66099566	-8e-06	1.3625269e-08
9.300289935511172e-10	0.107456006	0.0003863439	-0.6598113	-0.66093224	-8e-06	1.3625421e-08
9.40040429702709e-10	0.10745716	0.000382997	-0.6597494	-0.6608699	-8e-06	1.3625567e-08
9.500518182418817e-10	0.10745829	0.00037807622	-0.659689	-0.660809	-8e-06	1.3625712e-08
9.600104787061842e-10	0.10745941	0.0003716988	-0.6596307	-0.6607503	-8e-06	1.36258524e-08
9.700217465971798e-10	0.10746048	0.00036386837	-0.6595744	-0.6606936	-8e-06	1.362599e-08
9.800329756982462e-10	0.10746152	0.00035469566	-0.65952075	-0.6606395	-8e-06	1.3626121e-08
9.900441486501938e-10	0.107462525	0.0003442669	-0.65946996	-0.66058826	-8e-06	1.3626249e-08
1.0000026151440142e-09	0.107463494	0.0003327476	-0.6594227	-0.66054064	-8e-06	1.3626371e-08
1.0100137444244704e-09	0.10746443	0.00032012947	-0.65937877	-0.66049635	-8e-06	1.362649e-08
1.0200248477225944e-09	0.107465275	0.00030659477	-0.65933853	-0.66045594	-8e-06	1.3626597e-08
1.0300359264870561e-09	0.10746599	0.00029224853	-0.65930235	-0.6604194	-8e-06	1.3626687e-08
1.0400470005712406e-09	0.10746659	0.0002772224	-0.6592703	-0.6603871	-8e-06	1.3626765e-08
1.0500053942856804e-09	0.107467204	0.00026172595	-0.6592427	-0.6603593	-8e-06	1.3626841e-08
1.0600164469024923e-09	0.107467815	0.00024572556	-0.6592193	-0.6603358	-8e-06	1.3626918e-08
1.070027500566324e-09	0.10746829	0.00022943939	-0.6592005	-0.6603169	-8e-06	1.36269795e-08
1.080038552615077e-09	0.1074686	0.00021294013	-0.65918624	-0.6603024	-8e-06	1.3627019e-08
1.0900495959667582e-09	0.107468806	0.00019634058	-0.65917647	-0.66029257	-8e-06	1.3627045e-08
1.1000079519305506e-09	0.10746901	0.00017989898	-0.6591712	-0.6602873	-8e-06	1.362707e-08
1.1100189788502242e-09	0.1074691	0.0001636103	-0.65917045	-0.66028655	-8e-06	1.3627082e-08
1.1200300002858061e-09	0.107469015	0.00014764603	-0.65917397	-0.66029	-8e-06	1.3627071e-08
1.1300410488278721e-09	0.10746894	0.00013203175	-0.6591817	-0.6602978	-8e-06	1.3627063e-08
1.1400520761284878e-09	0.10746891	0.00011690984	-0.65919363	-0.6603098	-8e-06	1.3627056e-08
1.1500103889680572e-09	0.10746873	0.00010251648	-0.6592093	-0.6603256	-8e-06	1.36270355e-08
1.1600213784837203e-09	0.10746838	8.874787e-05	-0.6592289	-0.6603452	-8e-06	1.3626991e-08
1.170032354339882e-09	0.1074679	7.571833e-05	-0.6592518	-0.6603683	-8e-06	1.3626931e-08
1.1800433482009616e-09	0.107467435	6.357077e-05	-0.65927815	-0.6603948	-8e-06	1.362687e-08
1.190001677148687e-09	0.10746696	5.246362e-05	-0.65930724	-0.6604242	-8e-06	1.3626812e-08
1.2000126628506932e-09	0.10746647	4.2306638e-05	-0.65933925	-0.66045636	-8e-06	1.3626748e-08
1.2100236362831396e-09	0.10746587	3.315723e-05	-0.65937364	-0.660491	-8e-06	1.3626672e-08
1.220034568090291e-09	0.10746518	2.506178e-05	-0.6594101	-0.66052777	-8e-06	1.3626585e-08
1.230045528293836e-09	0.10746443	1.810126e-05	-0.65944844	-0.6605664	-8e-06	1.362649e-08
1.2400037714232169e-09	0.10746372	1.23611635e-05	-0.65948814	-0.6606062	-8e-06	1.3626399e-08
1.2500147050166384e-09	0.107463025	7.789343e-06	-0.6595291	-0.6606475	-8e-06	1.36263125e-08
1.2600256139065624e-09	0.10746231	4.3792807e-06	-0.659571	-0.6606897	-8e-06	1.3626221e-08
1.2700364901315295e-09	0.10746151	2.1224519e-06	-0.6596134	-0.6607324	-8e-06	1.362612e-08
1.2800474237757218e-09	0.10746072	1.0213641e-06	-0.6596559	-0.6607753	-8e-06	1.362602e-08
1.2900056458554265e-09	0.10745991	1.075516e-06	-0.6596982	-0.66081786	-8e-06	1.3625916e-08
1.3000165738655877e-09	0.107459106	2.2738764e-06	-0.6597403	-0.66086024	-8e-06	1.3625816e-08
1.3100274884345682e-09	0.10745835	4.589871e-06	-0.6597817	-0.6609019	-8e-06	1.3625719e-08
1.3200383987758437e-09	0.10745762	7.96283e-06	-0.659822	-0.66094255	-8e-06	1.3625628e-08
1.3300493411237841e-09	0.10745691	1.2319547e-05	-0.65986115	-0.6609819	-8e-06	1.3625536e-08
1.340007570394037e-09	0.107456215	1.7578795e-05	-0.6598985	-0.66101956	-8e-06	1.3625447e-08
1.3500184900074684e-09	0.10745555	2.3760129e-05	-0.6599342	-0.6610556	-8e-06	1.3625364e-08
1.3600294106554558e-09	0.1074549	3.0792347e-05	-0.6599681	-0.6610897	-8e-06	1.3625283e-08
1.3700403487028481e-09	0.107454285	3.8597736e-05	-0.6599997	-0.66112167	-8e-06	1.3625202e-08
1.3800513021088498e-09	0.10745369	4.709306e-05	-0.660029	-0.6611511	-8e-06	1.3625129e-08
1.3900095608833292e-09	0.107453145	5.6141434e-05	-0.66005564	-0.66117793	-8e-06	1.3625061e-08
1.400020500446761e-09	0.10745269	6.576241e-05	-0.66007966	-0.6612022	-8e-06	1.3625001e-08
1.4100315068350823e-09	0.10745229	7.5834156e-05	-0.6601009	-0.66122353	-8e-06	1.362495e-08
1.4200425110478954e-09	0.10745195	8.6278196e-05	-0.6601193	-0.661242	-8e-06	1.3624907e-08
1.4300007907504681e-09	0.10745166	9.6958895e-05	-0.66013455	-0.6612575	-8e-06	1.3624871e-08
1.4400117948820818e-09	0.10745139	0.00010789105	-0.660147	-0.66127	-8e-06	1.3624836e-08
1.45002280280417e-09	0.107451096	0.00011892951	-0.6601564	-0.66127944	-8e-06	1.36248e-08
1.4600337849394921e-09	0.10745089	0.00012999403	-0.6601627	-0.6612858	-8e-06	1.3624772e-08
1.4700447749115282e-09	0.10745079	0.00014103399	-0.66016597	-0.6612891	-8e-06	1.3624759e-08
1.4800031236521456e-09	0.10745084	0.00015190447	-0.6601662	-0.6612894	-8e-06	1.3624767e-08
1.4900141407611269e-09	0.10745097	0.000162612	-0.66016376	-0.66128695	-8e-06	1.3624784e-08
1.5000251795654722e-09	0.10745101	0.00017302821	-0.66015846	-0.6612816	-8e-06	1.3624788e-08
1.5100361781014108e-09	0.10745095	0.00018306586	-0.6601503	-0.6612734	-8e-06	1.362478e-08
1.5200471958960247e-09	0.10745097	0.00019268332	-0.66013956	-0.66126263	-8e-06	1.3624783e-08
1.5300055445722793e-09	0.10745117	0.00020184803	-0.6601263	-0.66124934	-8e-06	1.3624809e-08
1.5400165773855167e-09	0.107451536	0.00021058503	-0.6601108	-0.6612337	-8e-06	1.3624856e-08
1.5500276207174857e-09	0.10745196	0.00021871031	-0.6600932	-0.66121584	-8e-06	1.3624909e-08
1.560038641058464e-09	0.10745232	0.00022613212	-0.6600734	-0.661196	-8e-06	1.36249545e-08
1.570049671222678e-09	0.107452594	0.00023283441	-0.6600519	-0.66117436	-8e-06	1.3624989e-08
1.5800080074581429e-09	0.10745287	0.0002388212	-0.660029	-0.6611512	-8e-06	1.3625024e-08
1.5900190383318746e-09	0.10745323	0.00024417974	-0.6600043	-0.6611265	-8e-06	1.3625067e-08
1.600030049433317e-09	0.107453704	0.0002488418	-0.65997875	-0.6611006	-8e-06	1.362513e-08
1.6100410509275566e-09	0.107454285	0.00025271668	-0.6599519	-0.6610737	-8e-06	1.3625203e-08
1.62005207889832e-09	0.10745483	0.00025574164	-0.65992445	-0.661046	-8e-06	1.3625274e-08
1.6300103888060913e-09	0.10745534	0.00025791474	-0.6598965	-0.6610179	-8e-06	1.3625337e-08
1.6400213964759398e-09	0.107455805	0.00025931015	-0.6598681	-0.66098934	-8e-06	1.3625395e-08
1.6500324216257002e-09	0.107456245	0.00025997002	-0.6598396	-0.6609606	-8e-06	1.3625451e-08
1.6600434402774978e-09	0.10745674	0.00025991036	-0.6598112	-0.660932	-8e-06	1.3625516e-08
1.6700017500290505e-09	0.1074573	0.0002591146	-0.65978324	-0.66090375	-8e-06	1.3625586e-08
1.6800127627497413e-09	0.10745789	0.00025754873	-0.6597555	-0.66087586	-8e-06	1.3625661e-08
1.6900237422148442e-09	0.107458435	0.00025522572	-0.65972865	-0.6608488	-8e-06	1.3625729e-08
1.7000347655402147e-09	0.10745892	0.00025221627	-0.6597025	-0.6608225	-8e-06	1.3625791e-08
1.7100457733239673e-09	0.10745934	0.00024860213	-0.6596775	-0.66079724	-8e-06	1.36258445e-08
1.7200040714063243e-09	0.107459754	0.0002444555	-0.6596537	-0.6607733	-8e-06	1.3625897e-08
1.7300150342868552e-09	0.10746021	0.00023975181	-0.65963113	-0.6607506	-8e-06	1.3625956e-08
1.7400260325238858e-09	0.10746068	0.00023452817	-0.6596101	-0.66072947	-8e-06	1.3626015e-08
1.7500370274529714e-09	0.1074611	0.00022881514	-0.6595908	-0.66070986	-8e-06	1.36260665e-08
1.7600480071911138e-09	0.10746142	0.00022266038	-0.6595729	-0.6606919	-8e-06	1.3626109e-08
1.770006304243462e-09	0.10746171	0.00021620328	-0.659557	-0.66067594	-8e-06	1.36261455e-08
1.7800172779513934e-09	0.10746199	0.00020945536	-0.6595429	-0.66066164	-8e-06	1.3626178e-08
1.7900282419294727e-09	0.10746226	0.00020248833	-0.65953076	-0.6606494	-8e-06	1.3626215e-08
1.8000392591997207e-09	0.10746254	0.0001953132	-0.6595206	-0.66063917	-8e-06	1.3626251e-08
1.8100502366741386e-09	0.10746277	0.0001879849	-0.6595125	-0.660631	-8e-06	1.3626279e-08
1.820008538300549e-09	0.10746291	0.0001806022	-0.65950644	-0.6606249	-8e-06	1.3626297e-08
1.830019504066038e-09	0.10746297	0.00017316059	-0.6595024	-0.6606208	-8e-06	1.3626305e-08
1.8400304822036391e-09	0.10746299	0.00016578089	-0.6595003	-0.6606188	-8e-06	1.3626307e-08
1.850041481219288e-09	0.107462965	0.00015852755	-0.6595003	-0.66061866	-8e-06	1.36263045e-08
1.8600524716647964e-09	0.10746295	0.0001514141	-0.6595021	-0.66062045	-8e-06	1.3626302e-08
1.8700107585132325e-09	0.10746296	0.00014450021	-0.6595057	-0.6606242	-8e-06	1.36263045e-08
1.8800217641257034e-09	0.107462995	0.00013776608	-0.65951127	-0.66062963	-8e-06	1.3626309e-08
1.89003272128766e-09	0.107462965	0.00013131123	-0.6595184	-0.660637	-8e-06	1.36263045e-08
1.90004371007366e-09	0.10746277	0.00012515948	-0.6595275	-0.66064596	-8e-06	1.362628e-08
1.910001986981344e-09	0.1074625	0.00011938779	-0.6595378	-0.6606565	-8e-06	1.3626247e-08
1.9200129776763954e-09	0.10746224	0.00011400269	-0.6595499	-0.6606686	-8e-06	1.3626212e-08
1.9300239345098527e-09	0.10746204	0.00010907938	-0.6595631	-0.6606819	-8e-06	1.3626187e-08
1.940034935432688e-09	0.10746184	0.00010461286	-0.65957767	-0.6606965	-8e-06	1.36261615e-08
1.95004592300258e-09	0.10746162	0.00010058907	-0.6595931	-0.6607122	-8e-06	1.3626134e-08
1.960004182309392e-09	0.10746132	9.7033604e-05	-0.65960956	-0.6607287	-8e-06	1.3626096e-08
1.970015139829821e-09	0.10746099	9.396299e-05	-0.65962684	-0.66074604	-8e-06	1.3626054e-08
1.980026137293023e-09	0.10746063	9.145145e-05	-0.6596447	-0.6607641	-8e-06	1.3626008e-08
1.9900371296641276e-09	0.10746029	8.9484434e-05	-0.65966314	-0.66078264	-8e-06	1.3625966e-08
2e-09	0.10745998	8.805292e-05	-0.65968186	-0.6608014	-8e-06	1.3625924e-08
2.0100327417250167e-09	0.10745964	8.712331e-05	-0.6597008	-0.66082066	-8e-06	1.3625883e-08
2.020043731590715e-09	0.10745931	8.669812e-05	-0.65971994	-0.66083986	-8e-06	1.362584e-08
2.0300020590259178e-09	0.10745897	8.6778346e-05	-0.65973884	-0.66085887	-8e-06	1.36257965e-08
2.040013041077353e-09	0.1074586	8.7367e-05	-0.65975755	-0.66087776	-8e-06	1.3625749e-08
2.05e-09	0.10745823	8.8459055e-05	-0.65977603	-0.66089636	-8e-06	1.3625703e-08
2.0600155452281025e-09	0.1074579	9.003498e-05	-0.6597941	-0.66091454	-8e-06	1.36256615e-08
2.070026564272305e-09	0.107457586	9.205966e-05	-0.6598115	-0.660932	-8e-06	1.36256215e-08
2.080037545712082e-09	0.107457295	9.4491974e-05	-0.6598282	-0.6609489	-8e-06	1.3625584e-08
2.090048551086425e-09	0.107457	9.730135e-05	-0.65984416	-0.6609649	-8e-06	1.3625547e-08
2.1e-09	0.10745669	0.00010046222	-0.65985906	-0.66098	-8e-06	1.3625509e-08
2.1100154821306277e-09	0.10745641	0.000103995626	-0.65987307	-0.6609941	-8e-06	1.3625473e-08
2.1200264572762635e-09	0.10745615	0.00010784442	-0.6598861	-0.66100717	-8e-06	1.3625439e-08
2.13003747096923e-09	0.1074559	0.00011196297	-0.6598979	-0.66101915	-8e-06	1.3625409e-08
2.1400484633740363e-09	0.10745569	0.00011630665	-0.65990853	-0.6610298	-8e-06	1.3625382e-08
2.1500000000000002e-09	0.1074555	0.00012079975	-0.6599178	-0.6610392	-8e-06	1.3625357e-08
2.1600154449081325e-09	0.10745535	0.00012549141	-0.6599258	-0.6610472	-8e-06	1.3625337e-08
2.170026446424413e-09	0.10745522	0.00013032446	-0.6599325	-0.661054	-8e-06	1.3625321e-08
2.180037439265549e-09	0.10745509	0.00013523974	-0.6599379	-0.6610593	-8e-06	1.3625305e-08
2.190048423389333e-09	0.107455	0.00014018311	-0.65994185	-0.6610633	-8e-06	1.3625292e-08
2.2000000000000003e-09	0.10745491	0.00014509488	-0.6599444	-0.66106594	-8e-06	1.3625283e-08
2.2100154013183422e-09	0.1074549	0.00015002169	-0.6599456	-0.66106725	-8e-06	1.3625283e-08
2.220026387785727e-09	0.10745493	0.00015489136	-0.6599456	-0.66106725	-8e-06	1.3625285e-08
2.2300373838165545e-09	0.10745496	0.00015965922	-0.65994436	-0.661066	-8e-06	1.3625289e-08
2.2400483903193236e-09	0.10745496	0.00016429472	-0.65994185	-0.66106343	-8e-06	1.3625289e-08
2.2500000000000003e-09	0.10745493	0.0001687432	-0.65993816	-0.6610597	-8e-06	1.3625286e-08
2.2600154324892614e-09	0.10745496	0.00017304576	-0.65993327	-0.6610548	-8e-06	1.3625288e-08
2.27002643736757e-09	0.10745504	0.00017713849	-0.6599272	-0.6610487	-8e-06	1.3625299e-08
2.2800374303773166e-09	0.10745521	0.00018100407	-0.65992016	-0.6610417	-8e-06	1.362532e-08
2.2900484186461113e-09	0.107455395	0.00018460618	-0.6599121	-0.6610336	-8e-06	1.36253435e-08
2.3000000000000003e-09	0.10745556	0.0001878939	-0.6599033	-0.66102463	-8e-06	1.3625365e-08
2.31001545553561e-09	0.10745569	0.00019087274	-0.6598936	-0.6610148	-8e-06	1.3625382e-08
2.3200264540890677e-09	0.10745582	0.0001935312	-0.6598831	-0.66100436	-8e-06	1.3625399e-08
2.3300374388982774e-09	0.107455984	0.00019589083	-0.6598721	-0.6609932	-8e-06	1.3625419e-08
2.3400484320269034e-09	0.10745622	0.00019792804	-0.6598605	-0.66098154	-8e-06	1.3625448e-08
2.3500000000000004e-09	0.107456446	0.00019960623	-0.6598485	-0.66096944	-8e-06	1.3625477e-08
2.3600154239952e-09	0.107456684	0.00020091742	-0.6598361	-0.660957	-8e-06	1.3625508e-08
2.370026438020371e-09	0.107456945	0.00020185656	-0.6598236	-0.66094434	-8e-06	1.362554e-08
2.3800374531141485e-09	0.10745716	0.00020245372	-0.65981084	-0.6609315	-8e-06	1.3625567e-08
2.3900484373119675e-09	0.10745734	0.00020271045	-0.659798	-0.6609186	-8e-06	1.3625592e-08
2.4000000000000004e-09	0.10745758	0.00020263322	-0.65978533	-0.6609059	-8e-06	1.3625621e-08
2.410015408508361e-09	0.10745783	0.00020222057	-0.65977275	-0.6608932	-8e-06	1.36256535e-08
2.420026405619851e-09	0.10745809	0.00020146997	-0.6597604	-0.6608807	-8e-06	1.3625685e-08
2.4300374214871637e-09	0.10745833	0.00020039696	-0.6597483	-0.66086864	-8e-06	1.36257166e-08
2.4400483976444758e-09	0.10745854	0.00019901608	-0.65973663	-0.6608569	-8e-06	1.3625742e-08
2.4500000000000004e-09	0.10745874	0.00019737198	-0.6597256	-0.6608457	-8e-06	1.3625769e-08
2.460015409641813e-09	0.10745892	0.00019546963	-0.659715	-0.66083497	-8e-06	1.3625792e-08
2.470026419587906e-09	0.107459106	0.00019332563	-0.65970504	-0.6608249	-8e-06	1.3625816e-08
2.4800374135697644e-09	0.107459314	0.00019094846	-0.6596957	-0.66081554	-8e-06	1.362584e-08
2.49004839706639e-09	0.10745949	0.00018835769	-0.6596871	-0.6608069	-8e-06	1.3625865e-08
2.5000000000000005e-09	0.107459664	0.00018560924	-0.6596793	-0.660799	-8e-06	1.3625885e-08
2.510015410625124e-09	0.10745979	0.00018269231	-0.6596722	-0.660792	-8e-06	1.3625901e-08
2.520026372073468e-09	0.107459925	0.00017965378	-0.65966606	-0.66078573	-8e-06	1.3625918e-08
2.5300373537215688e-09	0.10746003	0.00017650997	-0.65966094	-0.6607804	-8e-06	1.3625932e-08
2.5400483444496086e-09	0.10746013	0.00017328793	-0.65965647	-0.6607761	-8e-06	1.3625944e-08
2.5500000000000005e-09	0.107460216	0.00017002679	-0.65965307	-0.6607725	-8e-06	1.3625955e-08
2.560015391327751e-09	0.10746025	0.00016671351	-0.65965044	-0.66076994	-8e-06	1.362596e-08
2.570026390649104e-09	0.10746027	0.0001633982	-0.6596488	-0.6607682	-8e-06	1.3625963e-08
2.5800374032586645e-09	0.1074603	0.000160114	-0.65964794	-0.66076744	-8e-06	1.3625965e-08
2.5900483789709828e-09	0.10746031	0.00015688119	-0.659648	-0.66076744	-8e-06	1.3625969e-08
2.6000000000000005e-09	0.10746032	0.0001537316	-0.6596489	-0.6607684	-8e-06	1.3625969e-08
2.6100153722404178e-09	0.107460305	0.00015063341	-0.6596506	-0.66077006	-8e-06	1.3625967e-08
2.6200263674255458e-09	0.10746029	0.000147634	-0.6596531	-0.66077256	-8e-06	1.36259635e-08
2.630037359590647e-09	0.107460245	0.00014475994	-0.65965635	-0.66077596	-8e-06	1.3625959e-08
2.6400483362390846e-09	0.107460186	0.00014203781	-0.65966046	-0.6607799	-8e-06	1.362595e-08
2.6500000000000006e-09	0.10746011	0.00013948965	-0.6596651	-0.66078466	-8e-06	1.3625943e-08
2.660015404325558e-09	0.10746004	0.00013710247	-0.6596705	-0.6607901	-8e-06	1.3625934e-08
2.6700263886609526e-09	0.10745992	0.00013491033	-0.6596764	-0.66079605	-8e-06	1.3625917e-08
2.6800373644077684e-09	0.10745979	0.00013289467	-0.65968287	-0.66080254	-8e-06	1.3625902e-08
2.6900483609765305e-09	0.10745968	0.00013109286	-0.65968984	-0.6608096	-8e-06	1.3625887e-08
2.7000000000000006e-09	0.10745957	0.00012954428	-0.6596972	-0.66081697	-8e-06	1.3625873e-08
2.7100154470051536e-09	0.10745942	0.00012821706	-0.65970486	-0.6608248	-8e-06	1.3625854e-08
2.720026434058513e-09	0.10745927	0.00012710318	-0.659713	-0.6608328	-8e-06	1.3625836e-08
2.7300374277964894e-09	0.10745912	0.00012621493	-0.6597212	-0.66084117	-8e-06	1.3625817e-08
2.74004841606733e-09	0.10745897	0.00012557112	-0.65972966	-0.66084963	-8e-06	1.3625797e-08
2.7500000000000006e-09	0.10745883	0.00012517853	-0.6597381	-0.66085815	-8e-06	1.3625778e-08
2.7600154210560177e-09	0.10745866	0.00012501607	-0.6597466	-0.6608668	-8e-06	1.3625759e-08
2.7700264451967242e-09	0.1074585	0.00012507825	-0.65975505	-0.66087526	-8e-06	1.3625739e-08
2.7800374370362628e-09	0.107458346	0.00012536305	-0.65976346	-0.6608838	-8e-06	1.3625718e-08
2.7900484211583046e-09	0.10745819	0.00012586996	-0.6597718	-0.66089207	-8e-06	1.3625698e-08
2.8000000000000007e-09	0.107458025	0.00012657796	-0.6597797	-0.6609001	-8e-06	1.3625679e-08
2.8100154137455613e-09	0.1074579	0.00012749102	-0.6597875	-0.6609079	-8e-06	1.36256615e-08
2.8200264235380566e-09	0.10745776	0.0001285931	-0.6597949	-0.6609154	-8e-06	1.3625644e-08
2.830037394479288e-09	0.10745762	0.00012987219	-0.659802	-0.6609225	-8e-06	1.3625627e-08
2.8400484044869406e-09	0.107457496	0.00013130922	-0.6598087	-0.66092926	-8e-06	1.362561e-08
2.8500000000000007e-09	0.10745738	0.00013288815	-0.6598149	-0.6609355	-8e-06	1.3625595e-08
2.860015424691313e-09	0.10745724	0.00013460696	-0.6598207	-0.66094124	-8e-06	1.3625579e-08
2.870026409146247e-09	0.10745714	0.00013644462	-0.65982586	-0.6609466	-8e-06	1.36255665e-08
2.8800373877539756e-09	0.10745705	0.00013839609	-0.6598305	-0.66095126	-8e-06	1.3625553e-08
2.890048411888283e-09	0.107456975	0.00014042678	-0.6598346	-0.66095537	-8e-06	1.3625543e-08
2.9000000000000007e-09	0.1074569	0.00014251264	-0.6598381	-0.66095895	-8e-06	1.3625535e-08
2.9100154145071585e-09	0.10745685	0.00014465966	-0.65984106	-0.6609619	-8e-06	1.3625528e-08
2.9200264043016543e-09	0.1074568	0.00014684253	-0.6598434	-0.66096425	-8e-06	1.3625523e-08
2.93003738804464e-09	0.107456766	0.00014905348	-0.6598451	-0.660966	-8e-06	1.3625518e-08
2.940048366631432e-09	0.10745672	0.00015127045	-0.65984625	-0.6609671	-8e-06	1.3625514e-08
2.9500000000000008e-09	0.10745672	0.00015345232	-0.65984684	-0.66096765	-8e-06	1.3625511e-08
2.9600154295603254e-09	0.107456714	0.00015561588	-0.65984684	-0.66096765	-8e-06	1.36255105e-08
2.970026408354289e-09	0.107456714	0.00015773533	-0.65984625	-0.6609671	-8e-06	1.36255105e-08
2.9800373795412625e-09	0.107456714	0.00015980788	-0.6598452	-0.660966	-8e-06	1.3625511e-08
2.9900483613727006e-09	0.10745674	0.00016181376	-0.6598435	-0.6609643	-8e-06	1.3625515e-08
3.000000000000001e-09	0.10745677	0.00016372713	-0.65984136	-0.66096216	-8e-06	1.36255185e-08
3.010015380097405e-09	0.1074568	0.00016555125	-0.6598387	-0.66095954	-8e-06	1.3625523e-08
3.0200263902582357e-09	0.10745686	0.00016726153	-0.6598355	-0.6609564	-8e-06	1.362553e-08
3.0300374140543706e-09	0.1074569	0.00016886253	-0.659832	-0.66095287	-8e-06	1.3625536e-08
3.0400484231540935e-09	0.10745697	0.00017033967	-0.6598282	-0.6609489	-8e-06	1.3625543e-08
3.050000000000001e-09	0.107457034	0.00017167843	-0.65982383	-0.6609446	-8e-06	1.3625552e-08
3.0600116338724887e-09	0.11818635	-0.007643577	-0.65622765	-0.6572814	-8e-06	1.4986028e-08
3.070022709466782e-09	0.11178807	-0.02548417	-0.6525346	-0.65353775	-8e-06	1.4174728e-08
3.080034144053184e-09	0.09625749	-0.03672845	-0.64914954	-0.6501561	-8e-06	1.2205451e-08
3.0900455657584747e-09	0.08476178	-0.031437077	-0.64579237	-0.6467912	-8e-06	1.07477955e-08
3.100000000000001e-09	0.0850092	-0.01491128	-0.64214206	-0.64312214	-8e-06	1.0779166e-08
3.1100142697335973e-09	0.094790824	-0.0017813693	-0.6381045	-0.63905615	-8e-06	1.2019476e-08
3.120025864703298e-09	0.10543108	-0.0022388382	-0.63371295	-0.6345992	-8e-06	1.3368661e-08
3.130037163734928e-09	0.10899419	-0.01406229	-0.62909085	-0.6299437	-8e-06	1.3820465e-08
3.1400485201312824e-09	0.103699945	-0.02559108	-0.62456936	-0.6253602	-8e-06	1.3149154e-08
3.150000000000001e-09	0.094580784	-0.026949339	-0.6201478	-0.62091964	-8e-06	1.1992844e-08
3.1600161649012224e-09	0.08870022	-0.017945202	-0.61571604	-0.6164563	-8e-06	1.1247188e-08
3.1700275589003357e-09	0.09027665	-0.0074867685	-0.61123943	-0.61193836	-8e-06	1.144708e-08
3.1800385934765837e-09	0.09747327	-0.0042784656	-0.6066666	-0.6073365	-8e-06	1.235961e-08
3.1900494139134165e-09	0.10433857	-0.010112574	-0.6019756	-0.60259086	-8e-06	1.3230131e-08
3.200000000000001e-09	0.105925575	-0.019228717	-0.5973157	-0.5979	-8e-06	1.3431363e-08
3.210015773108288e-09	0.10135671	-0.024043087	-0.5927984	-0.5933685	-8e-06	1.285203e-08
3.2200266879672227e-09	0.09470165	-0.02140499	-0.58844274	-0.5889977	-8e-06	1.2008168e-08
3.230037530230962e-09	0.09161224	-0.014869991	-0.5841944	-0.58473295	-8e-06	1.1616432e-08
3.24004827472777e-09	0.094430454	-0.010712242	-0.58007634	-0.5805986	-8e-06	1.1973781e-08
3.250000000000001e-09	0.10057569	-0.012021088	-0.57600206	-0.576524	-8e-06	1.2752999e-08
3.2600151148322e-09	0.10506957	-0.017070616	-0.5718025	-0.5723294	-8e-06	1.3322821e-08
3.270025975403822e-09	0.10449344	-0.021696212	-0.56760883	-0.5681229	-8e-06	1.3249768e-08
3.2800368628625725e-09	0.099784955	-0.022642788	-0.56355226	-0.5640661	-8e-06	1.2652733e-08
3.2900477570838734e-09	0.09511279	-0.019712688	-0.5596478	-0.5601714	-8e-06	1.20603e-08