# t (s)	mx ()	my ()	mz ()	m_z_yrange7_ ()	I_x (A)	ext_dwxpos (m)
0	0.107424766	0.00012293173	-0.66155314	-0.6626861	-8e-06	1.362146e-08
1.0009781361155175e-11	0.10742497	0.0001711725	-0.66154534	-0.66267854	-8e-06	1.3621484e-08
2.00321733419934e-11	0.10742561	0.00021824776	-0.66152483	-0.66265786	-8e-06	1.3621567e-08
3.0001507191249176e-11	0.10742608	0.0002635295	-0.66149205	-0.66262484	-8e-06	1.3621626e-08
4.003778647903852e-11	0.10742643	0.00030716887	-0.6614472	-0.6625798	-8e-06	1.3621671e-08
5.001467255570599e-11	0.10742691	0.0003486868	-0.6613913	-0.6625235	-8e-06	1.3621732e-08
6.003994221774392e-11	0.10742767	0.00038836605	-0.6613245	-0.66245633	-8e-06	1.3621829e-08
7.001132255537328e-11	0.10742884	0.0004253578	-0.6612483	-0.66237956	-8e-06	1.3621976e-08
8.003525770750955e-11	0.10743038	0.00045961412	-0.66116244	-0.66229314	-8e-06	1.3622173e-08
9.000858175949045e-11	0.1074321	0.0004906188	-0.66106874	-0.6621988	-8e-06	1.3622389e-08
1.0003478990567547e-10	0.10743375	0.00051859574	-0.66096705	-0.66209644	-8e-06	1.3622599e-08
1.1000487241765315e-10	0.10743533	0.0005432775	-0.66085947	-0.66198814	-8e-06	1.36228e-08
1.2002159759638365e-10	0.10743701	0.0005647893	-0.66074574	-0.6618736	-8e-06	1.3623012e-08
1.3003398954610866e-10	0.10743889	0.00058296724	-0.6606273	-0.6617543	-8e-06	1.3623253e-08
1.4004341429130544e-10	0.10744111	0.00059764646	-0.66050535	-0.6616314	-8e-06	1.3623534e-08
1.5000142259863509e-10	0.107443504	0.00060863676	-0.6603811	-0.6615063	-8e-06	1.3623836e-08
1.600127136688855e-10	0.10744588	0.00061604404	-0.66025454	-0.6613788	-8e-06	1.3624137e-08
1.7002405920679355e-10	0.10744811	0.0006199229	-0.6601271	-0.6612505	-8e-06	1.362442e-08
1.8003587997944534e-10	0.10745028	0.0006204218	-0.6599997	-0.6611222	-8e-06	1.3624695e-08
1.9004837648614955e-10	0.10745254	0.0006175871	-0.6598734	-0.660995	-8e-06	1.3624983e-08
2.0000879646723738e-10	0.10745491	0.0006115063	-0.65974975	-0.66087043	-8e-06	1.3625281e-08
2.1002233598147425e-10	0.10745733	0.0006022087	-0.65962815	-0.660748	-8e-06	1.362559e-08
2.2003580632227778e-10	0.107459724	0.0005898029	-0.6595103	-0.6606292	-8e-06	1.3625893e-08
2.300494595467254e-10	0.10746201	0.00057443336	-0.6593968	-0.6605149	-8e-06	1.3626182e-08
2.4001078060287357e-10	0.107464105	0.00055644236	-0.659289	-0.6604063	-8e-06	1.3626449e-08
2.5002533762237054e-10	0.107466094	0.00053588575	-0.6591864	-0.660303	-8e-06	1.3626701e-08
2.600405106934442e-10	0.10746803	0.0005130635	-0.6590903	-0.6602061	-8e-06	1.3626947e-08
2.700515598242014e-10	0.107469924	0.00048814135	-0.65900123	-0.6601163	-8e-06	1.36271865e-08
2.8000753146936317e-10	0.107471734	0.000461449	-0.6589201	-0.66003454	-8e-06	1.3627416e-08
2.9001639859460746e-10	0.10747339	0.00043294483	-0.6588463	-0.6599603	-8e-06	1.3627624e-08
3.000255628120701e-10	0.107474804	0.00040302216	-0.658781	-0.65989447	-8e-06	1.36278056e-08
3.100350328625206e-10	0.10747603	0.00037194902	-0.6587241	-0.6598372	-8e-06	1.362796e-08
3.2004487168874944e-10	0.1074771	0.00034000044	-0.65867627	-0.65978885	-8e-06	1.3628095e-08
3.300025004506072e-10	0.107478015	0.00030760962	-0.65863734	-0.6597497	-8e-06	1.3628212e-08
3.400131573926769e-10	0.10747881	0.00027464816	-0.6586075	-0.6597194	-8e-06	1.3628312e-08
3.500241799851819e-10	0.107479446	0.0002414952	-0.6585866	-0.65969837	-8e-06	1.36283935e-08
3.6003556353789827e-10	0.10747985	0.00020841495	-0.65857464	-0.6596864	-8e-06	1.3628447e-08
3.7004721686115894e-10	0.10748006	0.00017564956	-0.6585718	-0.6596835	-8e-06	1.3628469e-08
3.8000637752381593e-10	0.10748	0.0001436423	-0.6585777	-0.65968925	-8e-06	1.3628464e-08
3.9001840913796335e-10	0.10747984	0.00011225027	-0.658592	-0.65970373	-8e-06	1.3628443e-08
4.000305969688528e-10	0.10747959	8.188964e-05	-0.6586146	-0.6597265	-8e-06	1.3628411e-08
4.100428916636019e-10	0.10747921	5.273739e-05	-0.6586452	-0.65975726	-8e-06	1.3628362e-08
4.2000253403923356e-10	0.107478596	2.5074314e-05	-0.65868294	-0.6597953	-8e-06	1.3628286e-08
4.300148374656825e-10	0.10747778	-1.2334589e-06	-0.6587281	-0.6598407	-8e-06	1.3628182e-08
4.400271135957594e-10	0.107476845	-2.5827427e-05	-0.6587798	-0.65989274	-8e-06	1.3628064e-08
4.5003937991279134e-10	0.10747579	-4.849549e-05	-0.65883756	-0.6599509	-8e-06	1.362793e-08
4.600516039267826e-10	0.10747469	-6.916696e-05	-0.6589009	-0.6600147	-8e-06	1.36277905e-08
4.700111224355453e-10	0.107473515	-8.767436e-05	-0.6589687	-0.660083	-8e-06	1.3627642e-08
4.800233762897364e-10	0.10747219	-0.000104122984	-0.65904135	-0.66015613	-8e-06	1.3627475e-08
4.900356255995365e-10	0.10747079	-0.0001183569	-0.65911764	-0.66023296	-8e-06	1.3627296e-08
5.000479225032748e-10	0.107469305	-0.00013028234	-0.65919703	-0.6603129	-8e-06	1.36271066e-08
5.100075038725366e-10	0.1074678	-0.00013978498	-0.6592784	-0.6603949	-8e-06	1.3626917e-08
5.200198493001637e-10	0.10746627	-0.00014696312	-0.6593621	-0.6604791	-8e-06	1.3626723e-08
5.300322060508577e-10	0.107464716	-0.00015178113	-0.6594468	-0.6605645	-8e-06	1.3626526e-08
5.400445835670462e-10	0.10746316	-0.00015427687	-0.65953207	-0.6606504	-8e-06	1.36263285e-08
5.500042517514816e-10	0.107461594	-0.00015447769	-0.6596169	-0.6607357	-8e-06	1.36261304e-08
5.600165191293925e-10	0.10746003	-0.0001524144	-0.6597013	-0.6608208	-8e-06	1.36259315e-08
5.700285938214282e-10	0.10745849	-0.00014812713	-0.6597843	-0.66090447	-8e-06	1.3625736e-08
5.800404099712389e-10	0.107456975	-0.00014169735	-0.6598655	-0.6609862	-8e-06	1.3625545e-08
5.900519151894543e-10	0.107455514	-0.00013324966	-0.6599442	-0.6610656	-8e-06	1.362536e-08
6.000104002188563e-10	0.10745414	-0.00012293523	-0.6600195	-0.6611414	-8e-06	1.3625183e-08
6.10021303711015e-10	0.10745282	-0.00011077113	-0.66009176	-0.6612142	-8e-06	1.3625018e-08
6.2003198952414e-10	0.107451566	-9.693182e-05	-0.6601601	-0.661283	-8e-06	1.3624859e-08
6.300425649770082e-10	0.10745036	-8.154567e-05	-0.6602241	-0.66134745	-8e-06	1.3624706e-08
6.400004399199927e-10	0.1074492	-6.483581e-05	-0.66028315	-0.6614069	-8e-06	1.3624558e-08
6.500110172744292e-10	0.10744815	-4.6787703e-05	-0.6603374	-0.6614616	-8e-06	1.3624425e-08
6.600216326688336e-10	0.10744727	-2.765505e-05	-0.66038626	-0.6615109	-8e-06	1.3624313e-08
6.700323078542427e-10	0.107446454	-7.5872763e-06	-0.66042966	-0.6615546	-8e-06	1.3624209e-08
6.80043028295528e-10	0.1074457	1.3228596e-05	-0.66046727	-0.6615925	-8e-06	1.3624116e-08
6.900011697486821e-10	0.10744508	3.450526e-05	-0.66049886	-0.66162425	-8e-06	1.3624037e-08
7.000120510011012e-10	0.10744454	5.6342997e-05	-0.6605245	-0.6616502	-8e-06	1.3623968e-08
7.100230337829413e-10	0.10744405	7.8451994e-05	-0.66054416	-0.66166997	-8e-06	1.3623906e-08
7.200340638719268e-10	0.10744374	0.00010062768	-0.6605577	-0.6616837	-8e-06	1.36238665e-08
7.3004511676382e-10	0.107443556	0.00012274971	-0.6605652	-0.66169125	-8e-06	1.3623843e-08
7.400035563871434e-10	0.107443474	0.00014454083	-0.6605667	-0.6616927	-8e-06	1.3623832e-08
7.500146911909338e-10	0.1074435	0.00016602206	-0.6605624	-0.66168845	-8e-06	1.3623835e-08
7.600258661616901e-10	0.107443556	0.00018696529	-0.6605524	-0.66167843	-8e-06	1.36238425e-08
7.700370284037807e-10	0.10744368	0.00020725168	-0.6605368	-0.66166276	-8e-06	1.36238585e-08
7.80048219923966e-10	0.10744395	0.0002267273	-0.6605161	-0.6616418	-8e-06	1.3623893e-08
7.90006706934332e-10	0.10744434	0.00024518606	-0.6604904	-0.661616	-8e-06	1.3623941e-08
8.000178263826262e-10	0.1074448	0.00026270119	-0.6604598	-0.6615853	-8e-06	1.36240015e-08
8.100289770421036e-10	0.1074454	0.00027904	-0.66042495	-0.6615501	-8e-06	1.3624076e-08
8.200401414700098e-10	0.10744608	0.00029411627	-0.660386	-0.661511	-8e-06	1.3624161e-08
8.300512270232714e-10	0.10744675	0.00030788587	-0.6603434	-0.661468	-8e-06	1.3624248e-08
8.400095728496078e-10	0.107447445	0.0003201954	-0.66029775	-0.6614221	-8e-06	1.3624336e-08
8.500205758531354e-10	0.107448235	0.00033109446	-0.660249	-0.66137296	-8e-06	1.3624437e-08
8.600315042376416e-10	0.10744913	0.00034049884	-0.6601978	-0.66132134	-8e-06	1.36245495e-08
8.70042379043205e-10	0.10745012	0.00034836942	-0.66014445	-0.66126776	-8e-06	1.3624676e-08
8.800005677183848e-10	0.10745113	0.00035462694	-0.66008997	-0.66121274	-8e-06	1.36248035e-08
8.900114124494055e-10	0.10745212	0.00035932712	-0.6600339	-0.6611564	-8e-06	1.3624929e-08
9.000222260152295e-10	0.1074531	0.00036242683	-0.6599772	-0.66109926	-8e-06	1.3625053e-08
9.100330337056072e-10	0.107454084	0.00036396264	-0.65992016	-0.66104174	-8e-06	1.3625178e-08
9.200438374372715e-10	0.10745512	0.0003639897	-0.65986323	-0.6609844	-8e-06	1.3625309e-08
9.300019682191315e-10	0.107456215	0.00036253413	-0.65980697	-0.66092795	-8e-06	1.3625447e-08
9.400127581373084e-10	0.10745729	0.00035957282	-0.65975153	-0.660872	-8e-06	1.3625584e-08
9.500236196439726e-10	0.10745833	0.00035516545	-0.6596974	-0.66081744	-8e-06	1.36257166e-08
9.60034474735609e-10	0.107459314	0.0003493998	-0.65964484	-0.6607646	-8e-06	1.362584e-08
9.700453513706583e-10	0.10746026	0.00034236157	-0.6595944	-0.6607136	-8e-06	1.362596e-08
9.800035376949497e-10	0.10746118	0.00033418412	-0.6595465	-0.66066533	-8e-06	1.3626078e-08
9.900144528370727e-10	0.10746211	0.0003248635	-0.65950096	-0.6606195	-8e-06	1.3626195e-08
1.0000253898407498e-09	0.10746301	0.00031449893	-0.65945834	-0.6605766	-8e-06	1.3626308e-08
1.0100363518377005e-09	0.10746383	0.00030318368	-0.6594189	-0.6605369	-8e-06	1.3626414e-08
1.0200473303946327e-09	0.10746452	0.0002910246	-0.6593829	-0.6605006	-8e-06	1.3626502e-08
1.030005665836496e-09	0.10746513	0.0002782222	-0.6593506	-0.660468	-8e-06	1.3626579e-08
1.0400167051926169e-09	0.10746574	0.00026475894	-0.65932184	-0.6604391	-8e-06	1.36266545e-08
1.0500277690683745e-09	0.107466325	0.00025081934	-0.659297	-0.660414	-8e-06	1.362673e-08
1.0600388233381284e-09	0.10746686	0.00023649518	-0.659276	-0.66039294	-8e-06	1.3626798e-08
1.0700499142459006e-09	0.10746725	0.00022187419	-0.65925914	-0.66037583	-8e-06	1.3626845e-08
1.080008332951638e-09	0.10746747	0.00020711731	-0.6592464	-0.6603631	-8e-06	1.3626875e-08
1.0900194112675538e-09	0.10746768	0.00019222303	-0.6592376	-0.6603542	-8e-06	1.3626902e-08
1.100030531264127e-09	0.10746789	0.0001774446	-0.659233	-0.6603495	-8e-06	1.3626929e-08
1.1100416431616784e-09	0.10746799	0.00016288276	-0.6592323	-0.6603487	-8e-06	1.362694e-08
1.1200000797140993e-09	0.10746792	0.00014863983	-0.65923536	-0.6603518	-8e-06	1.3626931e-08
1.1300111666512e-09	0.10746784	0.00013460145	-0.6592423	-0.6603587	-8e-06	1.3626922e-08
1.140022266466834e-09	0.10746778	0.00012102739	-0.65925294	-0.6603695	-8e-06	1.3626915e-08
1.1500333717654372e-09	0.10746764	0.000108064036	-0.659267	-0.66038376	-8e-06	1.3626896e-08
1.160044483905653e-09	0.10746732	9.57312e-05	-0.65928453	-0.66040134	-8e-06	1.3626858e-08
1.1700029078396737e-09	0.10746689	8.4117884e-05	-0.6593051	-0.6604219	-8e-06	1.36268e-08
1.1800139836240432e-09	0.107466444	7.3217816e-05	-0.6593286	-0.66044563	-8e-06	1.3626746e-08
1.190025042791985e-09	0.10746606	6.319371e-05	-0.65935475	-0.6604721	-8e-06	1.3626695e-08
1.2000360908928028e-09	0.10746565	5.4091684e-05	-0.6593835	-0.66050094	-8e-06	1.3626644e-08
1.2100471352157673e-09	0.10746515	4.5885172e-05	-0.65941435	-0.66053206	-8e-06	1.3626581e-08
1.22000547226994e-09	0.10746451	3.8658407e-05	-0.65944695	-0.66056484	-8e-06	1.3626499e-08
1.2300165335464493e-09	0.10746381	3.2412892e-05	-0.65948135	-0.6605994	-8e-06	1.3626411e-08
1.240027574519285e-09	0.10746312	2.7238884e-05	-0.6595171	-0.6606354	-8e-06	1.3626323e-08
1.2500386048495948e-09	0.10746247	2.3144403e-05	-0.65955377	-0.6606724	-8e-06	1.3626242e-08
1.2600496247434347e-09	0.10746184	2.0096355e-05	-0.65959126	-0.6607102	-8e-06	1.36261615e-08
1.2700079778786634e-09	0.1074612	1.8092234e-05	-0.65962905	-0.6607483	-8e-06	1.3626079e-08
1.2800189746372856e-09	0.10746051	1.709895e-05	-0.65966725	-0.6607867	-8e-06	1.36259946e-08
1.2900299473682543e-09	0.10745978	1.713455e-05	-0.65970534	-0.660825	-8e-06	1.3625901e-08
1.3000409178917749e-09	0.10745904	1.8198032e-05	-0.659743	-0.66086304	-8e-06	1.3625805e-08
1.3100519227421177e-09	0.10745833	2.0263324e-05	-0.6597801	-0.6609004	-8e-06	1.3625715e-08
1.320010223385875e-09	0.107457675	2.3272261e-05	-0.6598161	-0.66093665	-8e-06	1.3625633e-08
1.330021197410949e-09	0.10745707	2.7191752e-05	-0.65985113	-0.66097194	-8e-06	1.3625558e-08
1.340032188891372e-09	0.107456475	3.194057e-05	-0.6598848	-0.661006	-8e-06	1.3625481e-08
1.350043148425683e-09	0.107455865	3.7472582e-05	-0.65991706	-0.6610383	-8e-06	1.3625404e-08
1.360001446661675e-09	0.10745523	4.3715587e-05	-0.6599472	-0.66106874	-8e-06	1.3625323e-08
1.3700124090108672e-09	0.10745462	5.070218e-05	-0.65997565	-0.66109735	-8e-06	1.3625248e-08
1.380023382300985e-09	0.107454106	5.833609e-05	-0.6600018	-0.6611237	-8e-06	1.3625181e-08
1.390034372479621e-09	0.107453674	6.6524546e-05	-0.6600258	-0.6611479	-8e-06	1.3625126e-08
1.4000453253654462e-09	0.10745331	7.5160264e-05	-0.66004735	-0.6611695	-8e-06	1.362508e-08
1.4100036201784943e-09	0.10745296	8.411638e-05	-0.66006625	-0.6611887	-8e-06	1.3625036e-08
1.4200145649672595e-09	0.107452646	9.3453564e-05	-0.66008276	-0.6612053	-8e-06	1.3624996e-08
1.4300255002548253e-09	0.10745232	0.00010307254	-0.66009665	-0.66121924	-8e-06	1.36249545e-08
1.4400364758494426e-09	0.10745201	0.00011288004	-0.66010773	-0.66123044	-8e-06	1.3624915e-08
1.450047435024427e-09	0.10745177	0.00012279836	-0.6601161	-0.66123897	-8e-06	1.3624885e-08
1.4600057144701125e-09	0.10745165	0.0001326901	-0.66012174	-0.6612446	-8e-06	1.36248675e-08
1.4700166691886658e-09	0.1074516	0.00014259137	-0.66012466	-0.66124755	-8e-06	1.3624863e-08
1.4800276435908081e-09	0.10745166	0.00015236827	-0.66012496	-0.66124785	-8e-06	1.3624871e-08
1.4900385919893043e-09	0.10745174	0.00016193811	-0.6601227	-0.6612456	-8e-06	1.3624881e-08
1.5000495898428932e-09	0.10745174	0.00017126476	-0.66011786	-0.66124076	-8e-06	1.362488e-08
1.5100078645404306e-09	0.107451655	0.00018023793	-0.66011065	-0.6612336	-8e-06	1.362487e-08
1.5200188458432106e-09	0.10745168	0.00018889169	-0.66010106	-0.6612239	-8e-06	1.3624872e-08
1.5300298123557762e-09	0.107451886	0.00019716841	-0.66008925	-0.6612119	-8e-06	1.3624899e-08
1.5400407803847864e-09	0.10745223	0.00020499335	-0.6600753	-0.6611979	-8e-06	1.3624943e-08
1.550051758720241e-09	0.10745262	0.00021225271	-0.66005933	-0.66118187	-8e-06	1.3624994e-08
1.5600100318458955e-09	0.10745294	0.00021885823	-0.6600418	-0.66116416	-8e-06	1.3625032e-08
1.5700210221218725e-09	0.10745318	0.00022487911	-0.6600225	-0.6611448	-8e-06	1.3625064e-08
1.5800319859619323e-09	0.107453406	0.0002302948	-0.66000175	-0.6611239	-8e-06	1.3625092e-08
1.5900429646041323e-09	0.10745374	0.0002351068	-0.6599798	-0.6611018	-8e-06	1.3625133e-08
1.6000012549564125e-09	0.10745417	0.00023925593	-0.65995693	-0.6610787	-8e-06	1.3625189e-08
1.610012239918922e-09	0.1074547	0.00024271663	-0.6599329	-0.66105455	-8e-06	1.3625256e-08
1.6200232153530944e-09	0.1074552	0.00024542672	-0.65990824	-0.66102976	-8e-06	1.36253195e-08
1.6300342334605858e-09	0.10745563	0.00024739324	-0.65988314	-0.6610045	-8e-06	1.3625375e-08
1.6400452364962174e-09	0.10745602	0.00024864526	-0.6598577	-0.6609788	-8e-06	1.36254235e-08
1.6500035259734991e-09	0.10745642	0.0002492394	-0.6598324	-0.66095316	-8e-06	1.3625473e-08
1.6600145252239603e-09	0.107456885	0.0002491978	-0.65980685	-0.6609276	-8e-06	1.3625533e-08
1.670025515595502e-09	0.10745741	0.0002484878	-0.6597817	-0.6609022	-8e-06	1.3625599e-08
1.6800365120794763e-09	0.10745794	0.00024708288	-0.65975684	-0.66087717	-8e-06	1.3625668e-08
1.6900474961647157e-09	0.10745843	0.00024499904	-0.65973264	-0.6608529	-8e-06	1.3625728e-08
1.7000058079196188e-09	0.10745884	0.00024230948	-0.65970945	-0.6608294	-8e-06	1.36257805e-08
1.7100167857064181e-09	0.1074592	0.00023907241	-0.659687	-0.66080683	-8e-06	1.3625826e-08
1.7200277785749297e-09	0.10745958	0.00023535248	-0.6596655	-0.66078526	-8e-06	1.3625875e-08
1.730038778141215e-09	0.10746	0.00023114719	-0.6596454	-0.6607648	-8e-06	1.3625928e-08
1.7400497744986263e-09	0.10746041	0.00022646155	-0.65962636	-0.6607459	-8e-06	1.36259795e-08
1.7500081037016562e-09	0.107460774	0.00022135323	-0.65960914	-0.6607283	-8e-06	1.36260265e-08
1.7600190912807516e-09	0.1074611	0.00021583926	-0.6595931	-0.6607123	-8e-06	1.3626068e-08
1.7700301087953124e-09	0.10746136	0.00021002897	-0.65957886	-0.6606979	-8e-06	1.3626099e-08
1.7800411210818027e-09	0.10746159	0.00020398252	-0.65956616	-0.6606851	-8e-06	1.36261304e-08
1.7900521054461192e-09	0.107461855	0.00019772847	-0.65955526	-0.6606741	-8e-06	1.3626162e-08
1.8000104154375347e-09	0.1074621	0.00019133354	-0.6595462	-0.660665	-8e-06	1.36261935e-08
1.810021413630778e-09	0.10746228	0.00018476663	-0.659539	-0.6606576	-8e-06	1.3626218e-08
1.820032417282358e-09	0.107462406	0.00017810444	-0.65953344	-0.66065204	-8e-06	1.3626234e-08
1.8300434395276884e-09	0.10746249	0.00017143675	-0.65952986	-0.66064847	-8e-06	1.3626242e-08
1.8400017698412834e-09	0.107462496	0.00016486933	-0.659528	-0.66064656	-8e-06	1.3626244e-08
1.8500127570583935e-09	0.107462466	0.0001583646	-0.6595278	-0.6606465	-8e-06	1.362624e-08
1.8600237545310503e-09	0.107462436	0.00015197918	-0.65952945	-0.66064805	-8e-06	1.3626237e-08
1.870034759531135e-09	0.10746244	0.0001457467	-0.6595327	-0.6606513	-8e-06	1.3626239e-08
1.8800457436557834e-09	0.1074625	0.0001397153	-0.6595377	-0.66065633	-8e-06	1.3626245e-08
1.890004060365026e-09	0.107462466	0.00013395614	-0.6595441	-0.6606628	-8e-06	1.36262415e-08
1.900015039449287e-09	0.107462324	0.00012844619	-0.65955204	-0.6606709	-8e-06	1.3626223e-08
1.9100260469603423e-09	0.10746208	0.0001232401	-0.6595616	-0.6606803	-8e-06	1.3626191e-08
1.920037039301883e-09	0.107461825	0.00011840203	-0.6595721	-0.6606911	-8e-06	1.3626159e-08
1.930048028738612e-09	0.10746163	0.00011397461	-0.6595841	-0.66070306	-8e-06	1.3626135e-08
1.940006326669077e-09	0.107461475	0.00010999194	-0.659597	-0.6607161	-8e-06	1.3626115e-08
1.9500173135591188e-09	0.1074613	0.00010637931	-0.659611	-0.6607301	-8e-06	1.3626092e-08
1.9600283019828414e-09	0.10746104	0.00010318435	-0.6596257	-0.66074497	-8e-06	1.362606e-08
1.9700392796226444e-09	0.10746069	0.00010042712	-0.6596412	-0.6607606	-8e-06	1.3626015e-08
1.980050287754152e-09	0.10746036	9.814322e-05	-0.65965724	-0.6607768	-8e-06	1.3625973e-08
1.990008591273638e-09	0.107460044	9.637877e-05	-0.6596737	-0.6607933	-8e-06	1.3625934e-08
2e-09	0.107459776	9.5104195e-05	-0.65969056	-0.66081023	-8e-06	1.36258995e-08
2.010016176734527e-09	0.107459515	9.42844e-05	-0.6597074	-0.66082734	-8e-06	1.3625867e-08
2.020027155423406e-09	0.107459225	9.3895804e-05	-0.65972465	-0.6608446	-8e-06	1.3625831e-08
2.030038152770483e-09	0.107458904	9.395196e-05	-0.6597417	-0.66086173	-8e-06	1.3625789e-08
2.040049135830101e-09	0.10745855	9.44644e-05	-0.65975857	-0.6608787	-8e-06	1.3625743e-08
2.05e-09	0.10745822	9.5436124e-05	-0.659775	-0.6608952	-8e-06	1.3625702e-08
2.060015661245157e-09	0.10745791	9.6859614e-05	-0.6597911	-0.6609116	-8e-06	1.3625663e-08
2.0700266661894626e-09	0.107457645	9.8684235e-05	-0.6598068	-0.66092736	-8e-06	1.36256295e-08
2.0800376518387752e-09	0.1074574	0.00010085883	-0.65982175	-0.66094244	-8e-06	1.3625596e-08
2.0900486394541447e-09	0.10745714	0.00010336536	-0.65983605	-0.66095686	-8e-06	1.3625566e-08
2.1e-09	0.10745687	0.00010619028	-0.65984946	-0.66097033	-8e-06	1.3625531e-08
2.1100155252118103e-09	0.10745658	0.00010935265	-0.6598621	-0.6609831	-8e-06	1.3625494e-08
2.1200265256454973e-09	0.10745632	0.00011281085	-0.6598737	-0.66099477	-8e-06	1.3625462e-08
2.1300374964040414e-09	0.10745612	0.00011651473	-0.65988433	-0.6610055	-8e-06	1.3625435e-08
2.140048462540817e-09	0.107455954	0.00012041267	-0.6598939	-0.66101503	-8e-06	1.36254155e-08
2.1500000000000002e-09	0.10745582	0.000124454	-0.65990216	-0.66102344	-8e-06	1.3625398e-08
2.160015427971748e-09	0.10745567	0.00012865377	-0.65990937	-0.6610307	-8e-06	1.3625379e-08
2.170026398562189e-09	0.10745551	0.00013296411	-0.6599154	-0.66103673	-8e-06	1.36253595e-08
2.180037385898347e-09	0.107455365	0.00013735818	-0.65992016	-0.6610415	-8e-06	1.3625341e-08
2.190048389661436e-09	0.10745529	0.00014180817	-0.6599237	-0.6610451	-8e-06	1.3625332e-08
2.2000000000000003e-09	0.10745526	0.00014623407	-0.659926	-0.6610474	-8e-06	1.36253275e-08
2.2100154598486824e-09	0.10745529	0.00015065171	-0.6599271	-0.66104853	-8e-06	1.3625332e-08
2.220026439881701e-09	0.10745529	0.00015499916	-0.6599271	-0.6610486	-8e-06	1.362533e-08
2.230037411604832e-09	0.107455276	0.00015925158	-0.659926	-0.66104746	-8e-06	1.3625329e-08
2.2400483663544065e-09	0.10745525	0.00016339771	-0.65992373	-0.6610452	-8e-06	1.3625327e-08
2.2500000000000003e-09	0.10745526	0.00016740143	-0.65992045	-0.6610419	-8e-06	1.36253275e-08
2.2600154028616028e-09	0.1074553	0.0001712783	-0.6599161	-0.6610375	-8e-06	1.3625332e-08
2.2700263977942674e-09	0.107455395	0.00017495762	-0.65991074	-0.66103214	-8e-06	1.36253435e-08
2.2800373803492673e-09	0.107455514	0.0001784123	-0.6599044	-0.66102576	-8e-06	1.36253595e-08
2.290048357456926e-09	0.10745566	0.00018162532	-0.65989727	-0.6610186	-8e-06	1.3625378e-08
2.3000000000000003e-09	0.107455805	0.00018456456	-0.65988934	-0.6610105	-8e-06	1.3625397e-08
2.3100154061491672e-09	0.10745594	0.0001872546	-0.65988064	-0.66100174	-8e-06	1.3625413e-08
2.320026404455071e-09	0.10745606	0.00018966185	-0.6598713	-0.6609924	-8e-06	1.362543e-08
2.330037406591647e-09	0.10745623	0.00019178531	-0.65986127	-0.6609824	-8e-06	1.3625449e-08
2.340048385816031e-09	0.10745643	0.0001936039	-0.659851	-0.66097194	-8e-06	1.3625475e-08
2.3500000000000004e-09	0.10745664	0.0001950951	-0.6598403	-0.6609612	-8e-06	1.36255025e-08
2.3600154173795784e-09	0.107456855	0.0001962769	-0.6598292	-0.66095006	-8e-06	1.3625529e-08
2.3700264115726634e-09	0.10745705	0.0001971328	-0.65981793	-0.6609386	-8e-06	1.3625553e-08
2.380037390488496e-09	0.10745723	0.00019767307	-0.6598065	-0.6609272	-8e-06	1.3625577e-08
2.3900483680569085e-09	0.107457414	0.00019791198	-0.65979505	-0.6609156	-8e-06	1.36256e-08
2.4000000000000004e-09	0.107457645	0.00019784279	-0.6597837	-0.6609042	-8e-06	1.36256295e-08
2.4100154313791967e-09	0.1074579	0.00019747902	-0.65977246	-0.6608928	-8e-06	1.3625659e-08
2.4200264283366e-09	0.10745811	0.00019682093	-0.65976137	-0.66088164	-8e-06	1.3625687e-08
2.430037414056176e-09	0.10745829	0.00019585973	-0.6597506	-0.6608708	-8e-06	1.3625712e-08
2.440048407297448e-09	0.107458465	0.00019462177	-0.6597401	-0.6608603	-8e-06	1.3625733e-08
2.4500000000000004e-09	0.10745865	0.00019316067	-0.6597302	-0.6608502	-8e-06	1.3625757e-08
2.460015425294602e-09	0.107458845	0.00019146591	-0.65972066	-0.6608407	-8e-06	1.3625781e-08
2.4700264077370294e-09	0.10745902	0.00018955505	-0.65971166	-0.6608316	-8e-06	1.36258045e-08
2.480037400400385e-09	0.1074592	0.00018742458	-0.65970325	-0.6608232	-8e-06	1.3625827e-08
2.490048377068656e-09	0.10745936	0.00018509905	-0.65969557	-0.6608154	-8e-06	1.3625846e-08
2.5000000000000005e-09	0.107459486	0.00018263113	-0.65968865	-0.6608084	-8e-06	1.3625862e-08
2.510015428079802e-09	0.10745961	0.00018002132	-0.6596823	-0.660802	-8e-06	1.362588e-08
2.520026397251366e-09	0.107459724	0.00017730871	-0.6596768	-0.66079646	-8e-06	1.3625894e-08
2.5300373806969224e-09	0.10745984	0.00017450235	-0.65967196	-0.6607917	-8e-06	1.36259075e-08
2.5400483792295077e-09	0.10745993	0.00017161574	-0.6596681	-0.66078764	-8e-06	1.3625917e-08
2.5500000000000005e-09	0.10746001	0.00016868954	-0.6596649	-0.66078454	-8e-06	1.3625929e-08
2.5600154173959542e-09	0.10746003	0.00016571821	-0.65966266	-0.66078216	-8e-06	1.36259315e-08
2.570026424895906e-09	0.107460044	0.00016274488	-0.6596611	-0.66078067	-8e-06	1.36259315e-08
2.5800374207646654e-09	0.10746007	0.00015980062	-0.6596604	-0.6607799	-8e-06	1.3625937e-08
2.5900484087357524e-09	0.10746009	0.00015690901	-0.65966034	-0.6607799	-8e-06	1.3625939e-08
2.6000000000000005e-09	0.1074601	0.0001540876	-0.6596611	-0.6607807	-8e-06	1.362594e-08
2.6100154418906793e-09	0.1074601	0.0001513078	-0.65966266	-0.66078216	-8e-06	1.362594e-08
2.6200264205342754e-09	0.10746007	0.00014860823	-0.6596648	-0.6607844	-8e-06	1.3625937e-08
2.6300374040148515e-09	0.10746003	0.00014602348	-0.6596678	-0.66078734	-8e-06	1.36259315e-08
2.6400483721144227e-09	0.10745995	0.00014358164	-0.6596713	-0.660791	-8e-06	1.36259235e-08
2.6500000000000006e-09	0.107459895	0.00014129873	-0.65967554	-0.66079515	-8e-06	1.3625915e-08
2.660015376332226e-09	0.10745983	0.00013916125	-0.65968025	-0.6608	-8e-06	1.3625907e-08
2.670026370176462e-09	0.107459754	0.0001371862	-0.6596856	-0.6608053	-8e-06	1.3625897e-08
2.6800373793101662e-09	0.107459664	0.00013537663	-0.65969133	-0.6608111	-8e-06	1.3625885e-08
2.690048384418458e-09	0.10745953	0.00013375307	-0.65969753	-0.6608173	-8e-06	1.3625868e-08
2.7000000000000006e-09	0.10745939	0.0001323361	-0.6597041	-0.660824	-8e-06	1.3625852e-08
2.710015428093846e-09	0.10745928	0.00013112921	-0.65971106	-0.660831	-8e-06	1.3625836e-08
2.7200264110435195e-09	0.107459165	0.00013013843	-0.6597182	-0.6608382	-8e-06	1.3625822e-08
2.730037394185919e-09	0.107459046	0.00012935374	-0.6597256	-0.66084564	-8e-06	1.3625808e-08
2.740048360500253e-09	0.1074589	0.00012876508	-0.6597331	-0.66085327	-8e-06	1.36257885e-08
2.7500000000000006e-09	0.10745876	0.00012838402	-0.6597407	-0.6608608	-8e-06	1.3625771e-08
2.760015417080016e-09	0.10745861	0.00012821905	-0.6597484	-0.6608686	-8e-06	1.362575e-08
2.770026413508135e-09	0.10745847	0.0001282687	-0.659756	-0.6608762	-8e-06	1.3625734e-08
2.7800374110928922e-09	0.10745834	0.00012852943	-0.6597636	-0.6608838	-8e-06	1.3625717e-08
2.790048397032044e-09	0.107458204	0.00012898621	-0.65977085	-0.6608912	-8e-06	1.3625701e-08
2.8000000000000007e-09	0.10745807	0.00012960695	-0.6597781	-0.6608985	-8e-06	1.3625683e-08
2.810015420546256e-09	0.10745793	0.00013039917	-0.65978503	-0.6609054	-8e-06	1.3625665e-08
2.8200264042488102e-09	0.1074578	0.0001313744	-0.6597917	-0.6609123	-8e-06	1.3625649e-08
2.8300374099291608e-09	0.107457675	0.0001325146	-0.6597981	-0.6609186	-8e-06	1.3625633e-08
2.840048372987746e-09	0.107457556	0.00013380873	-0.6598041	-0.6609246	-8e-06	1.3625619e-08
2.8500000000000007e-09	0.10745747	0.0001352262	-0.6598096	-0.6609302	-8e-06	1.3625606e-08
2.860015395746424e-09	0.10745735	0.00013676802	-0.6598148	-0.66093546	-8e-06	1.3625592e-08
2.8700263915099257e-09	0.10745727	0.00013840212	-0.6598194	-0.6609402	-8e-06	1.36255816e-08
2.8800373943224117e-09	0.107457176	0.00014013446	-0.65982366	-0.6609444	-8e-06	1.362557e-08
2.8900484033298737e-09	0.107457094	0.00014195307	-0.65982735	-0.66094816	-8e-06	1.3625559e-08
2.9000000000000007e-09	0.10745703	0.00014381981	-0.6598305	-0.6609513	-8e-06	1.36255505e-08
2.910015407968012e-09	0.107456975	0.00014574996	-0.65983325	-0.66095394	-8e-06	1.3625544e-08
2.920026384688021e-09	0.10745696	0.00014771172	-0.65983534	-0.660956	-8e-06	1.36255425e-08
2.9300373651198437e-09	0.107456915	0.00014968024	-0.6598369	-0.66095775	-8e-06	1.3625538e-08
2.940048355803333e-09	0.10745689	0.00015164976	-0.65983796	-0.6609588	-8e-06	1.3625535e-08
2.9500000000000008e-09	0.10745686	0.00015359823	-0.6598385	-0.6609593	-8e-06	1.362553e-08
2.960015405508368e-09	0.107456855	0.00015554117	-0.65983856	-0.6609594	-8e-06	1.362553e-08
2.9700264177855876e-09	0.107456855	0.00015745453	-0.659838	-0.66095895	-8e-06	1.3625529e-08
2.980037392385675e-09	0.10745686	0.00015931575	-0.6598371	-0.66095793	-8e-06	1.362553e-08
2.9900483757851354e-09	0.107456885	0.00016110828	-0.65983564	-0.66095644	-8e-06	1.3625535e-08
3.000000000000001e-09	0.107456915	0.00016281758	-0.6598338	-0.66095454	-8e-06	1.3625537e-08
3.0100154383053905e-09	0.10745695	0.00016445066	-0.65983146	-0.6609522	-8e-06	1.3625542e-08
3.0200264468451258e-09	0.10745698	0.000165996	-0.65982866	-0.66094947	-8e-06	1.3625545e-08
3.030037438667749e-09	0.10745703	0.00016744406	-0.6598255	-0.66094637	-8e-06	1.3625551e-08
3.040048416133023e-09	0.107457094	0.0001687803	-0.65982205	-0.66094285	-8e-06	1.3625559e-08
3.050000000000001e-09	0.10745716	0.00016998869	-0.6598183	-0.660939	-8e-06	1.3625567e-08
3.0600114822466664e-09	0.11813146	-0.0076275463	-0.65623176	-0.65729976	-8e-06	1.497907e-08
3.070022751203784e-09	0.11163684	-0.025483634	-0.6525581	-0.65356493	-8e-06	1.41555505e-08
3.080034098482177e-09	0.09606179	-0.036763303	-0.6491859	-0.65020096	-8e-06	1.2180634e-08
3.0900453940539146e-09	0.08463536	-0.03149254	-0.6458558	-0.6468576	-8e-06	1.0731764e-08
3.100000000000001e-09	0.084996015	-0.014985245	-0.64222676	-0.6432117	-8e-06	1.0777494e-08
3.1100142136368208e-09	0.09484679	-0.0018885547	-0.6382316	-0.63918436	-8e-06	1.20265735e-08
3.120025632910907e-09	0.10546101	-0.0024246438	-0.633891	-0.63477886	-8e-06	1.3372455e-08
3.130036852714006e-09	0.1089493	-0.014358235	-0.6293366	-0.63018906	-8e-06	1.38147715e-08
3.1400480842791855e-09	0.10361633	-0.025973223	-0.6248941	-0.6256846	-8e-06	1.3138551e-08
3.150000000000001e-09	0.09453203	-0.0273361	-0.6205614	-0.62133336	-8e-06	1.19866606e-08
3.1600158309254954e-09	0.08874299	-0.01828972	-0.61623275	-0.61697245	-8e-06	1.125261e-08
3.170027150972237e-09	0.090386026	-0.007836847	-0.61186814	-0.6125674	-8e-06	1.1460948e-08
3.180038035365135e-09	0.09757776	-0.0047242874	-0.6074187	-0.6080881	-8e-06	1.2372861e-08
3.1900487895350765e-09	0.104379326	-0.010671567	-0.60285455	-0.60347074	-8e-06	1.3235299e-08
3.200000000000001e-09	0.105901174	-0.019826584	-0.5983276	-0.5989125	-8e-06	1.3428269e-08
3.2100154979812656e-09	0.101310074	-0.024583524	-0.5939475	-0.59451985	-8e-06	1.2846116e-08
3.2200264759801476e-09	0.0946775	-0.021855487	-0.58973515	-0.5902926	-8e-06	1.2005105e-08
3.23003730758104e-09	0.09162681	-0.015304051	-0.5856342	-0.58617526	-8e-06	1.1618279e-08
3.2400480701163567e-09	0.09447212	-0.011236839	-0.58166814	-0.5821927	-8e-06	1.1979065e-08
3.250000000000001e-09	0.10061231	-0.012669607	-0.5777509	-0.5782749	-8e-06	1.2757641e-08
3.260015075971152e-09	0.10506805	-0.017787818	-0.5737173	-0.5742463	-8e-06	1.332263e-08
3.2700260024847175e-09	0.104445904	-0.022402992	-0.56970274	-0.5702177	-8e-06	1.3243741e-08
3.280036905861695e-09	0.09972226	-0.023321053	-0.5658402	-0.5663541	-8e-06	1.2644782e-08