# t (s)	mx ()	my ()	mz ()	m_z_yrange7_ ()	I_x (A)
0	0.1956591	-4.709503e-10	-0.43297568	-0.43352234	-8e-06
1.0003569017569644e-11	0.19565858	-3.6727528e-05	-0.4329821	-0.4335286	-8e-06
2.0021470930628432e-11	0.19565725	-7.154818e-05	-0.43299848	-0.43354505	-8e-06
3.001902251794106e-11	0.1956556	-0.00010379085	-0.43302426	-0.43357086	-8e-06
4.004638352096392e-11	0.19565381	-0.00013322335	-0.43305877	-0.43360546	-8e-06
5e-11	0.19565201	-0.00015916424	-0.43310076	-0.43364748	-8e-06
6.002790593494066e-11	0.19564968	-0.00018154285	-0.43314978	-0.43369657	-8e-06
7.00021865834015e-11	0.19564676	-0.00019965843	-0.43320405	-0.43375093	-8e-06
8.002270979226472e-11	0.19564326	-0.00021321615	-0.43326285	-0.4338098	-8e-06
9.003714428418216e-11	0.19563971	-0.0002218044	-0.43332458	-0.43387157	-8e-06
1e-10	0.19563638	-0.00022544296	-0.43338758	-0.43393466	-8e-06
1.1000641502208854e-10	0.19563326	-0.00022443135	-0.43345112	-0.4339983	-8e-06
1.2002245751403734e-10	0.19563018	-0.00021897399	-0.43351367	-0.43406093	-8e-06
1.3003879932945545e-10	0.19562705	-0.00020922108	-0.4335739	-0.43412122	-8e-06
1.4000086519690829e-10	0.19562393	-0.00019543871	-0.43363032	-0.4341777	-8e-06
1.5e-10	0.19562103	-0.00017774911	-0.43368232	-0.43422982	-8e-06
1.600192125066108e-10	0.19561847	-0.00015661522	-0.4337289	-0.43427643	-8e-06
1.7003479074585712e-10	0.19561641	-0.00013272274	-0.43376905	-0.43431664	-8e-06
1.800511797107643e-10	0.19561487	-0.00010678656	-0.43380204	-0.4343497	-8e-06
1.9001442435186401e-10	0.19561368	-7.952914e-05	-0.4338274	-0.434375	-8e-06
2e-10	0.19561273	-5.122291e-05	-0.43384486	-0.4343925	-8e-06
2.1001353756859354e-10	0.19561207	-2.2353419e-05	-0.43385425	-0.43440196	-8e-06
2.2002290530636195e-10	0.19561186	6.3809052e-06	-0.43385556	-0.4344032	-8e-06
2.3003251837746081e-10	0.19561219	3.4333218e-05	-0.4338489	-0.43439654	-8e-06
2.400426206971148e-10	0.19561307	6.087174e-05	-0.43383455	-0.43438217	-8e-06
2.5e-10	0.19561431	8.5300635e-05	-0.4338132	-0.43436083	-8e-06
2.6001212969238527e-10	0.1956158	0.00010745814	-0.43378523	-0.43433285	-8e-06
2.7002414013445273e-10	0.19561748	0.00012690556	-0.43375146	-0.434299	-8e-06
2.800364622951184e-10	0.19561939	0.00014334856	-0.43371266	-0.43426016	-8e-06
2.900492874995733e-10	0.19562161	0.00015647983	-0.4336699	-0.43421733	-8e-06
3e-10	0.19562404	0.000165977	-0.43362433	-0.43417168	-8e-06
3.100183979985312e-10	0.19562668	0.00017182008	-0.43357632	-0.4341237	-8e-06
3.200315786460566e-10	0.19562934	0.00017392359	-0.43352744	-0.43407467	-8e-06
3.300447156801393e-10	0.19563192	0.00017237816	-0.43347856	-0.4340257	-8e-06
3.4000510973006613e-10	0.19563437	0.00016736395	-0.43343097	-0.4339781	-8e-06
3.5e-10	0.1956367	0.00015905427	-0.43338516	-0.43393224	-8e-06
3.600181002902225e-10	0.19563901	0.00014763302	-0.4333422	-0.43388924	-8e-06
3.70030798163177e-10	0.19564119	0.00013340231	-0.433303	-0.43384996	-8e-06
3.8004341047851897e-10	0.19564311	0.00011671231	-0.4332682	-0.43381512	-8e-06
3.9000320483234104e-10	0.19564466	9.806927e-05	-0.43323866	-0.43378556	-8e-06
4.0005378419910903e-10	0.19564591	7.76776e-05	-0.4332144	-0.43376127	-8e-06
4.100178520627743e-10	0.19564688	5.6391586e-05	-0.43319628	-0.43374312	-8e-06
4.200300015122081e-10	0.19564754	3.4364537e-05	-0.4331842	-0.43373102	-8e-06
4.3004209450854204e-10	0.19564787	1.2134034e-05	-0.43317834	-0.4337252	-8e-06
4.400014676891508e-10	0.19564784	-9.747729e-06	-0.43317878	-0.4337256	-8e-06
4.5005364307005e-10	0.19564748	-3.1133815e-05	-0.43318525	-0.4337321	-8e-06
4.600175260149591e-10	0.19564688	-5.1165924e-05	-0.4331975	-0.4337443	-8e-06
4.700293314161467e-10	0.19564597	-6.971948e-05	-0.4332151	-0.43376198	-8e-06
4.800412660424753e-10	0.19564472	-8.6394415e-05	-0.43323776	-0.43378466	-8e-06
4.900003642472589e-10	0.19564326	-0.00010083893	-0.43326455	-0.43381146	-8e-06
5.000535613415758e-10	0.19564164	-0.00011298568	-0.4332953	-0.43384224	-8e-06
5.100173923320245e-10	0.19563991	-0.00012241694	-0.43332863	-0.4338757	-8e-06
5.200292362825813e-10	0.19563799	-0.00012912609	-0.43336442	-0.43391147	-8e-06
5.30041105435162e-10	0.19563603	-0.00013299023	-0.43340155	-0.4339487	-8e-06
5.400003020476775e-10	0.19563404	-0.00013401173	-0.43343914	-0.43398628	-8e-06
5.500535732284568e-10	0.19563206	-0.00013224661	-0.4334768	-0.43402404	-8e-06
5.600174989502301e-10	0.1956301	-0.00012782698	-0.43351325	-0.43406048	-8e-06
5.700296205583852e-10	0.19562823	-0.00012083548	-0.43354812	-0.4340954	-8e-06
5.800417398131191e-10	0.19562654	-0.000111495596	-0.4335806	-0.434128	-8e-06
5.900011822615599e-10	0.19562502	-0.00010014287	-0.43360996	-0.43415737	-8e-06
6e-10	0.19562362	-8.69346e-05	-0.43363595	-0.43418333	-8e-06
6.100177639671103e-10	0.19562249	-7.221975e-05	-0.43365794	-0.43420535	-8e-06
6.200299771677811e-10	0.19562154	-5.6384288e-05	-0.43367556	-0.43422303	-8e-06
6.300422498199576e-10	0.19562086	-3.975621e-05	-0.43368858	-0.43423602	-8e-06
6.400016927504353e-10	0.19562043	-2.276715e-05	-0.4336968	-0.43424428	-8e-06
6.5e-10	0.19562027	-5.628562e-06	-0.4337002	-0.43424773	-8e-06
6.600177527394923e-10	0.19562031	1.1225571e-05	-0.43369886	-0.43424633	-8e-06
6.70030001946797e-10	0.19562063	2.742108e-05	-0.43369287	-0.43424037	-8e-06
6.800422071300458e-10	0.19562119	4.2687876e-05	-0.43368247	-0.43422997	-8e-06
6.900016208252311e-10	0.19562191	5.6635537e-05	-0.43366808	-0.43421552	-8e-06
7.000000000000001e-10	0.19562286	6.914492e-05	-0.43364993	-0.4341973	-8e-06
7.100176786116108e-10	0.19562398	7.994428e-05	-0.43362847	-0.4341759	-8e-06
7.200298285147228e-10	0.19562528	8.882311e-05	-0.4336043	-0.4341517	-8e-06
7.300419306547976e-10	0.19562666	9.5657066e-05	-0.433578	-0.43412536	-8e-06
7.40001337463168e-10	0.19562814	0.00010030864	-0.43355036	-0.43409765	-8e-06
7.500000000000001e-10	0.19562964	0.0001028148	-0.43352163	-0.43406886	-8e-06
7.600177221114655e-10	0.19563115	0.00010314447	-0.43349254	-0.43403974	-8e-06
7.700297742797158e-10	0.19563268	0.00010132637	-0.43346372	-0.4340109	-8e-06
7.800418196073509e-10	0.19563419	9.74674e-05	-0.43343574	-0.4339829	-8e-06
7.900010972935639e-10	0.1956356	9.1699905e-05	-0.43340942	-0.4339565	-8e-06
8.000000000000001e-10	0.1956369	8.41315e-05	-0.4333848	-0.43393192	-8e-06
8.100177303126897e-10	0.19563806	7.4994125e-05	-0.43336266	-0.43390968	-8e-06
8.200297807829467e-10	0.1956391	6.454374e-05	-0.4333433	-0.4338903	-8e-06
8.300418176853003e-10	0.19563998	5.3019583e-05	-0.43332708	-0.43387407	-8e-06
8.400012302935763e-10	0.19564067	4.0713887e-05	-0.43331435	-0.43386132	-8e-06
8.500000000000002e-10	0.19564115	2.7799724e-05	-0.4333051	-0.43385208	-8e-06
8.600176418972217e-10	0.19564143	1.4596162e-05	-0.43329957	-0.4338465	-8e-06
8.700296750825251e-10	0.19564156	1.4222699e-06	-0.4332977	-0.43384472	-8e-06
8.8004183606461e-10	0.19564143	-1.1465285e-05	-0.43329957	-0.43384653	-8e-06
8.900012389648293e-10	0.19564116	-2.3757088e-05	-0.43330494	-0.4338519	-8e-06
9.000000000000002e-10	0.1956407	-3.5298664e-05	-0.4333136	-0.4338606	-8e-06
9.100176894239516e-10	0.1956401	-4.5869616e-05	-0.43332544	-0.43387246	-8e-06
9.200298415420037e-10	0.19563933	-5.5249297e-05	-0.43334	-0.43388703	-8e-06
9.300419181616488e-10	0.19563842	-6.3260864e-05	-0.433357	-0.43390408	-8e-06
9.400014326895799e-10	0.1956374	-6.9727015e-05	-0.43337595	-0.433923	-8e-06
9.500000000000002e-10	0.19563633	-7.461595e-05	-0.43339646	-0.43394354	-8e-06
9.600176537224017e-10	0.19563518	-7.7871155e-05	-0.4334181	-0.4339652	-8e-06
9.700297958783835e-10	0.19563398	-7.942812e-05	-0.4334404	-0.43398753	-8e-06
9.800419546508425e-10	0.19563282	-7.931745e-05	-0.43346286	-0.43401	-8e-06
9.900012783331502e-10	0.19563165	-7.756904e-05	-0.4334848	-0.43403202	-8e-06
1.0000000000000003e-09	0.19563054	-7.424767e-05	-0.4335061	-0.43405333	-8e-06
1.0100210505710687e-09	0.19063908	-0.0034998844	-0.43212342	-0.43262342	-8e-06
1.0200336830267933e-09	0.1804199	-0.0043820417	-0.4304788	-0.4309615	-8e-06
1.0300468975671245e-09	0.17503954	-0.0022038317	-0.42867064	-0.4292051	-8e-06
1.0400060543342494e-09	0.17802912	0.0031087324	-0.42661223	-0.42712045	-8e-06
1.0500000000000003e-09	0.18515626	0.0074653327	-0.42403284	-0.42453724	-8e-06
1.0600168626018039e-09	0.18932389	0.009017545	-0.42099273	-0.42154425	-8e-06
1.0700286307651942e-09	0.18794839	0.0072088856	-0.41756785	-0.41803047	-8e-06
1.0800401352441903e-09	0.18343984	0.0033963926	-0.41390425	-0.4143942	-8e-06
1.0900511554827065e-09	0.17975056	0.003260927	-0.4101626	-0.4106606	-8e-06
1.1000000000000003e-09	0.1793738	0.008571041	-0.40597	-0.4064653	-8e-06
1.1100163092092163e-09	0.18173796	0.014623006	-0.4014204	-0.4019421	-8e-06
1.1200273798268804e-09	0.18480462	0.016226748	-0.39671925	-0.3971835	-8e-06
1.1300384821105882e-09	0.18652873	0.012445231	-0.3916423	-0.39211178	-8e-06
1.1400496031082735e-09	0.1853879	0.0087246895	-0.386363	-0.3868287	-8e-06
1.1500000000000004e-09	0.182287	0.010019878	-0.38099456	-0.3814698	-8e-06
1.1600159935685167e-09	0.1795915	0.0148860095	-0.37537956	-0.37586835	-8e-06
1.1700273075311084e-09	0.17973873	0.018503515	-0.36957332	-0.37002432	-8e-06
1.1800385261120398e-09	0.18268588	0.017985517	-0.36355135	-0.36399406	-8e-06
1.1900495698942673e-09	0.18551935	0.015578484	-0.35737196	-0.35781372	-8e-06
1.2000000000000004e-09	0.18572438	0.014611068	-0.3511205	-0.35156232	-8e-06
1.2100160898360487e-09	0.18316057	0.015775654	-0.3447522	-0.3451976	-8e-06
1.2200272716643503e-09	0.18016256	0.01756449	-0.3382764	-0.3387042	-8e-06
1.2300383798561198e-09	0.17950927	0.01855737	-0.3316714	-0.33208528	-8e-06
1.2400495215319683e-09	0.1817013	0.0187158	-0.32503328	-0.32544404	-8e-06
1.2500000000000004e-09	0.1846261	0.01844032	-0.31840366	-0.31881127	-8e-06
1.2600160525509486e-09	0.18552339	0.017884884	-0.31166643	-0.3120685	-8e-06
1.2700273280260301e-09	0.18357879	0.017527377	-0.30487937	-0.30527318	-8e-06
1.2800386051605923e-09	0.18092786	0.01776854	-0.29806706	-0.29845178	-8e-06
1.290049890914466e-09	0.1801802	0.018305602	-0.29129273	-0.29166603	-8e-06
1.3000000000000005e-09	0.18182793	0.01867489	-0.28462476	-0.284994	-8e-06
1.3100163181318597e-09	0.18410358	0.018689487	-0.27790824	-0.2782761	-8e-06
1.3200278130018624e-09	0.18490824	0.018288197	-0.2711426	-0.27150044	-8e-06
1.3300392665856765e-09	0.18383129	0.017589085	-0.26439747	-0.26474243	-8e-06
1.3400507385882245e-09	0.18212926	0.017077297	-0.25774774	-0.25808483	-8e-06
1.3500000000000005e-09	0.18140513	0.017152142	-0.25121778	-0.2515519	-8e-06
1.3600166452917893e-09	0.18217635	0.017633913	-0.24468017	-0.24500887	-8e-06
1.3700281369370801e-09	0.18361454	0.017858848	-0.2381619	-0.23848034	-8e-06
1.3800396481260858e-09	0.18448661	0.017430793	-0.23166986	-0.23197731	-8e-06
1.3900511332384694e-09	0.18420063	0.016647888	-0.22523047	-0.22552966	-8e-06
1.4000000000000005e-09	0.18317898	0.016102687	-0.21889459	-0.21918745	-8e-06
1.4100168373742618e-09	0.18236518	0.016133158	-0.21257634	-0.21286228	-8e-06
1.4200283864794535e-09	0.18244936	0.016525866	-0.20631261	-0.20658989	-8e-06
1.4300400356344587e-09	0.18333738	0.016693834	-0.20008026	-0.20034729	-8e-06
1.4400516343767458e-09	0.18424498	0.016345145	-0.19386396	-0.19412072	-8e-06
1.4500000000000006e-09	0.18439564	0.01577203	-0.18771707	-0.18796533	-8e-06
1.460017041984984e-09	0.1837393	0.015442531	-0.18158326	-0.18182418	-8e-06
1.4700287280036594e-09	0.18294367	0.0154846925	-0.17550647	-0.17573892	-8e-06
1.4800404911040738e-09	0.18273714	0.015634293	-0.16946135	-0.16968404	-8e-06
1.4900522029598858e-09	0.18326348	0.015642304	-0.16343169	-0.1636448	-8e-06
1.5000000000000006e-09	0.18402313	0.015475869	-0.15745783	-0.15766217	-8e-06
1.510017242708291e-09	0.18436432	0.015234753	-0.15147638	-0.15167269	-8e-06
1.5200290163347629e-09	0.1840149	0.015028639	-0.14553869	-0.1457274	-8e-06
1.5300409050652118e-09	0.18334271	0.014915774	-0.13962853	-0.13980934	-8e-06
1.540000062493303e-09	0.18299893	0.014898781	-0.13376711	-0.13393953	-8e-06
1.5500000000000006e-09	0.18328607	0.014910395	-0.1279039	-0.12806821	-8e-06
1.5600174065086017e-09	0.1839048	0.014878822	-0.12205811	-0.122215696	-8e-06
1.5700293251851532e-09	0.18427056	0.014786944	-0.11623711	-0.11638864	-8e-06
1.580041368220866e-09	0.18409179	0.014639996	-0.110429026	-0.11057361	-8e-06
1.590000626790002e-09	0.18360254	0.014484213	-0.10466598	-0.10480324	-8e-06
1.6000000000000007e-09	0.18327528	0.014409206	-0.09890172	-0.09903266	-8e-06
1.610017632521937e-09	0.1833904	0.014449116	-0.09314829	-0.09327387	-8e-06
1.6200296740961552e-09	0.1838045	0.014519699	-0.087407224	-0.08752714	-8e-06
1.6300418795211654e-09	0.18412206	0.01450932	-0.08166535	-0.08177885	-8e-06
1.6400013799394149e-09	0.18407893	0.014406521	-0.075954795	-0.07606192	-8e-06
1.6500000000000007e-09	0.18375933	0.01430535	-0.070228	-0.07032946	-8e-06
1.6600177388129546e-09	0.18347202	0.014302681	-0.064494774	-0.064590834	-8e-06
1.6700299450663528e-09	0.1834547	0.014398454	-0.0587613	-0.05885149	-8e-06
1.6800422123326384e-09	0.18368378	0.014508185	-0.05301623	-0.053099986	-8e-06
1.6900017445834246e-09	0.18392943	0.014564394	-0.047285117	-0.047362432	-8e-06
1.7000000000000007e-09	0.18397138	0.014577579	-0.041513022	-0.041584115	-8e-06
1.7100179834629484e-09	0.18377592	0.014605304	-0.035708997	-0.035773728	-8e-06
1.7200304208719639e-09	0.1835165	0.014692734	-0.02988562	-0.029943502	-8e-06
1.730042847615287e-09	0.18340504	0.0148357265	-0.024036093	-0.024086693	-8e-06
1.7400025696219432e-09	0.1835008	0.014995807	-0.018184712	-0.018227924	-8e-06
1.7500000000000008e-09	0.18367457	0.015145593	-0.012270749	-0.0123064285	-8e-06
1.7600180822488843e-09	0.1837383	0.015281625	-0.006300037	-0.0063277218	-8e-06
1.7700307449411786e-09	0.18361238	0.015418481	-0.00028875563	-0.0003080182	-8e-06
1.7800433541753393e-09	0.1833848	0.015577671	0.0057656737	0.005755055	-8e-06
1.7900033599283348e-09	0.18322374	0.015768642	0.011834732	0.011832853	-8e-06
1.8000000000000008e-09	0.18322334	0.015980273	0.017978726	0.01798593	-8e-06
1.810018260179475e-09	0.18332702	0.016188558	0.024192339	0.024209019	-8e-06
1.8200310247518025e-09	0.18338376	0.016380424	0.030457743	0.030484077	-8e-06
1.8300438256202453e-09	0.1832947	0.01656201	0.03677566	0.036811665	-8e-06
1.840004019030015e-09	0.18310134	0.016746288	0.04311134	0.043156948	-8e-06
1.8500000000000008e-09	0.18293215	0.016938971	0.049520556	0.049575843	-8e-06
1.8600183656984122e-09	0.18288323	0.017126692	0.055993285	0.056058336	-8e-06
1.8700313428067047e-09	0.18293451	0.017291998	0.06250792	0.06258263	-8e-06
1.880044404937832e-09	0.1829793	0.017431064	0.06906338	0.06914746	-8e-06
1.8900047463218783e-09	0.18292993	0.01755029	0.07561959	0.075712755	-8e-06
1.900000000000001e-09	0.18279484	0.017653937	0.082227364	0.082329415	-8e-06
1.910018720269318e-09	0.18266235	0.017733583	0.0888709	0.08898169	-8e-06
1.9200318933520233e-09	0.18261468	0.017776128	0.09552236	0.09564165	-8e-06
1.9300452701280275e-09	0.18265478	0.01777702	0.10217789	0.102305464	-8e-06
1.940005902985757e-09	0.18271424	0.01774482	0.10879457	0.10893016	-8e-06
1.950000000000001e-09	0.18272352	0.017689897	0.11542048	0.11556392	-8e-06
1.9600186565340895e-09	0.18267083	0.017610583	0.12203895	0.12219018	-8e-06
1.9700322289282493e-09	0.18260676	0.017493133	0.12861998	0.128779	-8e-06
1.9800458293198415e-09	0.18259297	0.017327478	0.13515802	0.13532487	-8e-06
1.9900069008019393e-09	0.1826464	0.017123166	0.14161171	0.14178637	-8e-06
2.000000000000001e-09	0.18272983	0.01689915	0.14802933	0.1482118	-8e-06
2.010018961557251e-09	0.18278915	0.016667804	0.15439977	0.15459016	-8e-06
2.02003285494127e-09	0.18280087	0.016423905	0.16069652	0.160895	-8e-06
2.0300469370628504e-09	0.18278827	0.016154084	0.16691718	0.16712393	-8e-06
2.0400084320730574e-09	0.1827948	0.015857017	0.1730255	0.17324053	-8e-06
2.050000000000001e-09	0.1828445	0.01554299	0.17907037	0.17929374	-8e-06
2.060019101952354e-09	0.1829231	0.01523041	0.18504865	0.18528046	-8e-06
2.0700334954457553e-09	0.18299165	0.014930101	0.19094022	0.19118054	-8e-06
2.0800479842473067e-09	0.18302213	0.0146378195	0.19674721	0.19699617	-8e-06
2.090009771489039e-09	0.18302047	0.01434492	0.20243965	0.20269716	-8e-06
2.100000000000001e-09	0.18301839	0.014044813	0.2080656	0.20833164	-8e-06
2.1100192758144316e-09	0.18304299	0.0137441	0.21362735	0.21390192	-8e-06
2.1200340647457445e-09	0.18309239	0.013456042	0.2191091	0.2193921	-8e-06
2.1300489876963483e-09	0.18313962	0.0131888045	0.22451603	0.22480747	-8e-06
2.140011029071044e-09	0.1831589	0.012942624	0.22982265	0.2301223	-8e-06
2.150000000000001e-09	0.18314901	0.0127072055	0.23507464	0.2353824	-8e-06
2.1600196127636355e-09	0.1831312	0.01247446	0.24027684	0.24059258	-8e-06
2.1700347607812997e-09	0.1831288	0.012244491	0.24541447	0.24573804	-8e-06
2.18005007289846e-09	0.1831457	0.012024747	0.25049338	0.2508246	-8e-06
2.1900127224878583e-09	0.1831655	0.011825468	0.25549045	0.25582913	-8e-06
2.200000000000001e-09	0.18316886	0.01164735	0.26044774	0.2607937	-8e-06
2.210018650603466e-09	0.18315037	0.011483173	0.26537114	0.26572418	-8e-06
2.220034460344738e-09	0.18312186	0.0113226315	0.27024657	0.27060655	-8e-06
2.2300501675870177e-09	0.18310004	0.01116103	0.2750782	0.27544495	-8e-06
2.2400133608616687e-09	0.18309158	0.011005121	0.2798438	0.2802171	-8e-06
2.250000000000001e-09	0.18308891	0.010864024	0.28458247	0.2849621	-8e-06
2.260017979378126e-09	0.18307877	0.010741694	0.28929988	0.28968576	-8e-06
2.270034202740001e-09	0.18305396	0.010631544	0.2939825	0.2943744	-8e-06
2.280050452526418e-09	0.1830187	0.01052229	0.29863304	0.2990309	-8e-06
2.290014155489744e-09	0.18298367	0.010409913	0.30322918	0.3036329	-8e-06
2.300000000000001e-09	0.18295617	0.010299003	0.30780727	0.30821657	-8e-06
2.3100166859422434e-09	0.18293506	0.01019811	0.31237248	0.31278744	-8e-06
2.3200334559971316e-09	0.18291251	0.010110143	0.31691208	0.31733248	-8e-06
2.3300503001119965e-09	0.18288104	0.01002906	0.32142705	0.32185292	-8e-06
2.3400145232110745e-09	0.18283984	0.009946539	0.32589445	0.32632574	-8e-06
2.350000000000001e-09	0.18279456	0.009857959	0.33034796	0.33078462	-8e-06
2.3600154505454525e-09	0.18275274	0.0097658625	0.33479142	0.3352334	-8e-06
2.370032814955101e-09	0.1827175	0.009675382	0.33921212	0.33965945	-8e-06
2.380050111883114e-09	0.1826848	0.009587773	0.3436087	0.3440614	-8e-06
2.3900149322219787e-09	0.18264784	0.009499289	0.34795722	0.34841523	-8e-06
2.4000000000000012e-09	0.18260296	0.009402849	0.35228804	0.35275143	-8e-06
2.410014001364299e-09	0.18255335	0.009294156	0.35660282	0.35707158	-8e-06
2.4200319266523373e-09	0.18250594	0.009173312	0.36088824	0.36136237	-8e-06
2.430049994156242e-09	0.1824652	0.009042284	0.36513987	0.3656194	-8e-06
2.4400154525599513e-09	0.18242966	0.00890245	0.36933237	0.36981726	-8e-06
2.4500000000000013e-09	0.18239348	0.008750623	0.37349227	0.37398258	-8e-06
2.4600123612183442e-09	0.18235286	0.00858261	0.3776188	0.37811443	-8e-06
2.4700308848142224e-09	0.1823091	0.008395237	0.38169813	0.38219914	-8e-06
2.4800495699862856e-09	0.18226734	0.00818719	0.38572285	0.3862292	-8e-06
2.4900156426417176e-09	0.18223184	0.007960265	0.38966718	0.3901787	-8e-06
2.5000000000000013e-09	0.18220209	0.0077141374	0.39355385	0.39407054	-8e-06
2.5100112276393564e-09	0.18217435	0.0074487557	0.39738023	0.397902	-8e-06
2.520030604040058e-09	0.18214513	0.0071631824	0.4011329	0.40165967	-8e-06
2.5300477800445218e-09	0.18211417	0.0068554888	0.40480202	0.4053337	-8e-06
2.540005888783233e-09	0.18208455	0.0065262904	0.4083617	0.4088981	-8e-06
2.5500000000000013e-09	0.18205905	0.006173268	0.41184026	0.41238123	-8e-06
2.560016281961995e-09	0.1824858	0.005901239	0.41501394	0.41555813	-8e-06
2.570027298693177e-09	0.18267071	0.006032244	0.41805694	0.41860512	-8e-06
2.580038439664969e-09	0.18247664	0.0059326906	0.42096397	0.42151707	-8e-06
2.590049742687736e-09	0.18206969	0.005284801	0.42373618	0.4242935	-8e-06
2.6000000000000014e-09	0.18178539	0.0043335166	0.42635715	0.42691758	-8e-06
2.6100164724635323e-09	0.18217883	0.0035994283	0.42870283	0.42926487	-8e-06
2.6200280177488366e-09	0.18266942	0.0035269682	0.43088454	0.43144926	-8e-06
2.6300395286027678e-09	0.18284795	0.0035126412	0.4328991	0.43346766	-8e-06
2.6400509654822834e-09	0.1825539	0.0030442507	0.434749	0.43532065	-8e-06
2.6500000000000014e-09	0.18204118	0.0021229687	0.4364247	0.43699828	-8e-06
2.6600164616484324e-09	0.18198012	0.0011561227	0.4378478	0.43842208	-8e-06
2.670027622827349e-09	0.18227816	0.00064281817	0.43909442	0.4396702	-8e-06
2.680038698322637e-09	0.18267587	0.00036042437	0.44016328	0.44074124	-8e-06
2.6900497691438824e-09	0.1827938	-2.1715046e-05	0.44105563	0.44163513	-8e-06
2.7000000000000014e-09	0.18251224	-0.0006673323	0.44176844	0.44234875	-8e-06
2.7100159643391342e-09	0.18225218	-0.0014752094	0.44224468	0.4428247	-8e-06
2.720027043535238e-09	0.18216303	-0.0021281678	0.44254836	0.44312876	-8e-06
2.7300381494009873e-09	0.18233353	-0.0026601132	0.44268095	0.44326207	-8e-06
2.740049317265124e-09	0.18257242	-0.0031624546	0.44264147	0.44322282	-8e-06
2.7500000000000015e-09	0.18262786	-0.003715909	0.44243273	0.44301364	-8e-06
2.7600159368319415e-09	0.18257341	-0.004315959	0.4420066	0.4425862	-8e-06
2.770027136561651e-09	0.18240798	-0.004823388	0.44142294	0.4420016	-8e-06
2.7800382522404014e-09	0.18230565	-0.0053228615	0.44068667	0.4412648	-8e-06
2.7900493324857944e-09	0.1823338	-0.005871183	0.43979788	0.4403752	-8e-06
2.8000000000000015e-09	0.18242519	-0.006455761	0.43876407	0.43934005	-8e-06
2.810015898092303e-09	0.18257816	-0.006993634	0.4375384	0.438112	-8e-06
2.8200269376813232e-09	0.18260996	-0.0073560188	0.4361781	0.4367495	-8e-06
2.830037978926727e-09	0.18252155	-0.007677785	0.4346909	0.43526062	-8e-06
2.840049072021808e-09	0.18239076	-0.008092487	0.4330802	0.4336483	-8e-06
2.8500000000000015e-09	0.18231499	-0.008611499	0.43135908	0.43192506	-8e-06
2.8600157190668416e-09	0.18238324	-0.00912044	0.42949834	0.43006128	-8e-06
2.8700267492918483e-09	0.1825209	-0.009473255	0.42753413	0.42809397	-8e-06
2.8800378529290276e-09	0.18262126	-0.009704389	0.4254754	0.42603245	-8e-06
2.8900490382495384e-09	0.1826017	-0.009930664	0.42332777	0.42388242	-8e-06
2.9000000000000016e-09	0.18248473	-0.010229344	0.4211093	0.42166132	-8e-06
2.9100157589194238e-09	0.1823864	-0.010573717	0.41879845	0.41934705	-8e-06
2.920026954763052e-09	0.18241286	-0.010873909	0.41641963	0.41696462	-8e-06
2.9300380400017713e-09	0.18255337	-0.011082388	0.41398093	0.4145225	-8e-06
2.9400492005163217e-09	0.18268883	-0.011221826	0.41148907	0.4120276	-8e-06
2.9500000000000016e-09	0.18271047	-0.0113417795	0.40896472	0.40950012	-8e-06
2.9600158551072693e-09	0.18262666	-0.011467805	0.40638173	0.4069135	-8e-06
2.970026967096037e-09	0.1825472	-0.011594041	0.40376484	0.4042928	-8e-06
2.980038110937813e-09	0.18257086	-0.01171139	0.40112048	0.40164486	-8e-06
2.9900492159483025e-09	0.18269154	-0.011809246	0.39845523	0.39897618	-8e-06
3.0000000000000016e-09	0.18281426	-0.011868407	0.39579034	0.39630792	-8e-06
3.0100158703532164e-09	0.18285762	-0.011873829	0.3930967	0.39361057	-8e-06
3.0200270511981176e-09	0.18282342	-0.011838886	0.3903981	0.39090815	-8e-06
3.0300381736354033e-09	0.18278477	-0.011807257	0.38769922	0.38820565	-8e-06
3.0400493362477677e-09	0.18280792	-0.011808424	0.38500544	0.38550845	-8e-06
3.0500000000000017e-09	0.1828934	-0.01182123	0.38233718	0.3828368	-8e-06
3.060016647574293e-09	0.18487959	-0.008523535	0.38027537	0.38073957	-8e-06
3.070028621237416e-09	0.18814357	-0.004848638	0.37922573	0.3796971	-8e-06
3.0800417387873627e-09	0.18996616	-0.000955447	0.3791222	0.37959093	-8e-06
3.090002077047455e-09	0.18874751	0.0027251132	0.3800941	0.38056454	-8e-06
3.1000000000000017e-09	0.18588406	0.006055615	0.38207734	0.3825558	-8e-06
3.110017801913578e-09	0.18405713	0.00951366	0.38492468	0.3854061	-8e-06
3.1200294224740293e-09	0.18435611	0.012950902	0.3885768	0.38905907	-8e-06
3.1300409095495627e-09	0.18574066	0.015278442	0.39296463	0.39345667	-8e-06
3.140052484466137e-09	0.1866102	0.016594741	0.39805737	0.39855903	-8e-06
3.1500000000000017e-09	0.18615256	0.018158367	0.40375063	0.40425283	-8e-06
3.160017281499218e-09	0.18452887	0.020489419	0.40990645	0.41042322	-8e-06
3.1700292452189765e-09	0.1828437	0.022560783	0.4162863	0.41680712	-8e-06
3.180041243587396e-09	0.18234248	0.022961719	0.4228281	0.42336455	-8e-06
3.190000686799247e-09	0.18323915	0.02187734	0.42942214	0.42996618	-8e-06
3.2000000000000018e-09	0.18436062	0.020646958	0.43601876	0.43656802	-8e-06
3.2100174505115393e-09	0.18462051	0.020031191	0.44244757	0.44300538	-8e-06
3.220029424055019e-09	0.18406163	0.01960628	0.44854033	0.44910616	-8e-06
3.2300413111351155e-09	0.1835112	0.018407341	0.4541457	0.4547235	-8e-06
3.240000488367707e-09	0.18353033	0.016122384	0.45917422	0.4597563	-8e-06
3.250000000000002e-09	0.18405549	0.0131541155	0.46362284	0.46420974	-8e-06
3.260017197799973e-09	0.18472433	0.010045959	0.4673991	0.46798944	-8e-06
3.270028806259935e-09	0.18518096	0.007104475	0.47041932	0.47101575	-8e-06
3.28004045432664e-09	0.18527919	0.004448916	0.47262973	0.47323003	-8e-06
3.2900522591107547e-09	0.18513675	0.0019717952	0.47399378	0.47459412	-8e-06
3.300000000000002e-09	0.18497059	-0.00071662915	0.47449797	0.47509754	-8e-06
3.3100171264758834e-09	0.18484893	-0.004011337	0.47418058	0.47478113	-8e-06
3.3200287722892805e-09	0.18476583	-0.0075878603	0.47307104	0.47367078	-8e-06
3.3300404217363857e-09	0.18475513	-0.010650366	0.4712154	0.47181186	-8e-06
3.340052103670847e-09	0.18480843	-0.012789818	0.46865365	0.46924588	-8e-06
3.350000000000002e-09	0.18477307	-0.014354454	0.46545714	0.4660449	-8e-06
3.3600171956630925e-09	0.18452218	-0.016012939	0.46166325	0.46224624	-8e-06
3.3700289170236167e-09	0.18413816	-0.01792077	0.45740294	0.45798054	-8e-06
3.3800407667802377e-09	0.18382776	-0.019639198	0.45278317	0.4533547	-8e-06
3.390052528616521e-09	0.18375587	-0.020662876	0.44789934	0.44846383	-8e-06
3.400000000000002e-09	0.1839559	-0.020913903	0.4428761	0.44343358	-8e-06
3.4100174351866955e-09	0.18430701	-0.020691603	0.437741	0.4382918	-8e-06
3.4200293713376235e-09	0.18456909	-0.020273307	0.43264055	0.43318442	-8e-06
3.4300413739250315e-09	0.18458523	-0.01971327	0.4276811	0.42821813	-8e-06
3.4400007219178013e-09	0.18447004	-0.018932393	0.42298427	0.42351532	-8e-06
3.450000000000002e-09	0.18453054	-0.017806252	0.41859084	0.41911617	-8e-06
3.4600177154599356e-09	0.18494855	-0.01625199	0.41459033	0.41510996	-8e-06
3.4700299236540442e-09	0.18557112	-0.014315075	0.4110563	0.4115708	-8e-06
3.480042139193193e-09	0.18605216	-0.012173433	0.4080408	0.40855107	-8e-06
3.4900016329119816e-09	0.18617308	-0.010031215	0.40560725	0.40611458	-8e-06
3.500000000000002e-09	0.1860281	-0.007918118	0.40377218	0.40427738	-8e-06
3.510017906028767e-09	0.18591169	-0.0057455087	0.40256456	0.4030681	-8e-06
3.5200300819062392e-09	0.18603699	-0.0034484607	0.4019909	0.40249354	-8e-06
3.5300422786498545e-09	0.18633258	-0.0010953074	0.40204278	0.40254557	-8e-06
3.540001782721339e-09	0.18652885	0.0011544715	0.40270215	0.40320605	-8e-06
3.550000000000002e-09	0.18643184	0.0032356963	0.4039535	0.40445924	-8e-06
3.560017776594564e-09	0.18608513	0.0051518744	0.40576336	0.40627164	-8e-06
3.5700298923969126e-09	0.18570994	0.006907683	0.40807557	0.40858713	-8e-06
3.580042024971434e-09	0.18550293	0.008451983	0.4108306	0.41134623	-8e-06
3.5900014129736867e-09	0.18548843	0.009720491	0.4139497	0.41446993	-8e-06
3.600000000000002e-09	0.18552354	0.010731853	0.41739693	0.41792172	-8e-06
3.6100175654047003e-09	0.18543836	0.011518961	0.4210956	0.42162526	-8e-06
3.620029520875289e-09	0.18519564	0.012063056	0.42495707	0.42549202	-8e-06
3.630041440612976e-09	0.18492347	0.012295192	0.42889932	0.42943984	-8e-06
3.6400006274701665e-09	0.18478684	0.012175095	0.43282032	0.43336636	-8e-06
3.650000000000002e-09	0.18483384	0.011734704	0.4366812	0.43723238	-8e-06
3.6600173648925613e-09	0.18497528	0.011044948	0.4404005	0.44095638	-8e-06
3.6700291824532552e-09	0.185081	0.01015724	0.44389895	0.44445938	-8e-06
3.6800409000972065e-09	0.18509224	0.009077553	0.44711208	0.44767687	-8e-06
3.6900526466107926e-09	0.18504865	0.0077937027	0.44997922	0.45054793	-8e-06
3.700000000000002e-09	0.18503378	0.0063153245	0.45243454	0.45300645	-8e-06
3.7100172363847745e-09	0.18509705	0.004648033	0.45447102	0.45504552	-8e-06
3.72002891991292e-09	0.18521471	0.0028613352	0.4560402	0.4566166	-8e-06
3.730040645165651e-09	0.18531524	0.0010371809	0.45712355	0.45770133	-8e-06
3.74005233836337e-09	0.1853422	-0.0007542497	0.4577099	0.45828837	-8e-06
3.750000000000002e-09	0.18529484	-0.0024834948	0.45779797	0.4583765	-8e-06
3.760017182795205e-09	0.18521614	-0.0041966056	0.4573971	0.45797503	-8e-06
3.77002887378689e-09	0.18515435	-0.0058862898	0.45652625	0.45710292	-8e-06
3.780040652813726e-09	0.18512715	-0.0075003477	0.45521584	0.45579067	-8e-06
3.7900524267966265e-09	0.185117	-0.008950121	0.4535036	0.45407602	-8e-06
3.800000000000002e-09	0.185095	-0.010166396	0.4514473	0.45201692	-8e-06
3.810017313705185e-09	0.1850498	-0.011162884	0.4490679	0.44963428	-8e-06
3.820029113936239e-09	0.18499705	-0.01196318	0.44643527	0.44699806	-8e-06
3.830040923337998e-09	0.18496275	-0.012588783	0.44360787	0.44416684	-8e-06
3.840000251487247e-09	0.18496454	-0.013021678	0.440664	0.44121903	-8e-06
3.850000000000001e-09	0.1850066	-0.013227358	0.437639	0.43818992	-8e-06
3.8600174493843296e-09	0.18508317	-0.013174459	0.4346012	0.43514803	-8e-06
3.8700293939462335e-09	0.18518046	-0.012867725	0.43161803	0.43216082	-8e-06
3.880041396722355e-09	0.18528117	-0.012345596	0.428746	0.4292849	-8e-06
3.890000800223837e-09	0.18537396	-0.011659514	0.4260536	0.4265889	-8e-06
3.900000000000001e-09	0.18546328	-0.010830701	0.42356586	0.42409787	-8e-06
3.910017717455031e-09	0.18556274	-0.0098590115	0.42133483	0.42186385	-8e-06
3.920029866222323e-09	0.18567991	-0.008739326	0.41940424	0.41993064	-8e-06
3.9300419116730185e-09	0.18580374	-0.007487239	0.4178034	0.4183276	-8e-06
3.940001338545431e-09	0.18590713	-0.006155728	0.41656134	0.41708392	-8e-06
3.950000000000001e-09	0.18596831	-0.0047857007	0.4156825	0.41620398	-8e-06
3.96001770543899e-09	0.18598545	-0.0034150404	0.4151811	0.41570193	-8e-06
3.9700297310305595e-09	0.1859784	-0.0020610238	0.41506016	0.41558093	-8e-06