# t (s)	mx ()	my ()	mz ()	m_z_yrange7_ ()	I_x (A)	ext_dwxpos (m)
0	0.10741993	0.00011813127	-0.66181004	-0.6629448	-8e-06	1.3620848e-08
1.001321754779413e-11	0.10742017	0.00017332104	-0.66180116	-0.6629361	-8e-06	1.3620876e-08
2.0040823345057607e-11	0.107420914	0.00022721315	-0.6617776	-0.6629124	-8e-06	1.3620972e-08
3.002424491062906e-11	0.10742143	0.00027909564	-0.66174006	-0.6628746	-8e-06	1.3621036e-08
4.0023650647051786e-11	0.10742183	0.0003288296	-0.66168886	-0.66282314	-8e-06	1.3621086e-08
5.004620095747027e-11	0.10742236	0.0003765359	-0.6616247	-0.6627585	-8e-06	1.3621155e-08
6.002310977152624e-11	0.107423216	0.00042171107	-0.6615487	-0.66268206	-8e-06	1.3621262e-08
7.004576967379199e-11	0.107424535	0.0004642513	-0.6614609	-0.6625937	-8e-06	1.3621431e-08
8.001689136850371e-11	0.107426286	0.0005032322	-0.6613633	-0.6624953	-8e-06	1.3621653e-08
9.004485488772327e-11	0.10742822	0.00053888717	-0.6612554	-0.6623868	-8e-06	1.3621898e-08
1.0001861398022774e-10	0.107430086	0.0005707171	-0.6611397	-0.66227037	-8e-06	1.3622134e-08
1.1004383087516664e-10	0.10743189	0.0005991045	-0.661016	-0.6621457	-8e-06	1.3622362e-08
1.2001330439820692e-10	0.10743376	0.0006235917	-0.6608864	-0.6620153	-8e-06	1.3622602e-08
1.3002526926136565e-10	0.107435904	0.00064439	-0.660751	-0.6618789	-8e-06	1.3622873e-08
1.400366292456861e-10	0.107438445	0.00066119013	-0.6606113	-0.6617383	-8e-06	1.3623194e-08
1.5004819444825889e-10	0.107441194	0.00067381805	-0.66046846	-0.6615944	-8e-06	1.3623543e-08
1.600076623584017e-10	0.107443884	0.0006822316	-0.66032434	-0.6614493	-8e-06	1.3623884e-08
1.7002032217346935e-10	0.107446425	0.0006866641	-0.6601786	-0.66130245	-8e-06	1.3624207e-08
1.8003314970574497e-10	0.10744891	0.0006872334	-0.66003287	-0.66115564	-8e-06	1.3624522e-08
1.9004589760948488e-10	0.1074515	0.00068399386	-0.6598885	-0.6610102	-8e-06	1.362485e-08
2.000057464459836e-10	0.10745419	0.0006770376	-0.65974694	-0.66086775	-8e-06	1.3625192e-08
2.1001822427033283e-10	0.10745698	0.00066639646	-0.65960795	-0.6607277	-8e-06	1.3625546e-08
2.2003058035759433e-10	0.107459754	0.00065220695	-0.65947306	-0.66059184	-8e-06	1.3625896e-08
2.3004269194502112e-10	0.10746237	0.00063463463	-0.65934324	-0.66046107	-8e-06	1.3626229e-08
2.4000199042682103e-10	0.10746478	0.0006140489	-0.65922	-0.66033685	-8e-06	1.3626534e-08
2.5001416118089604e-10	0.10746706	0.0005905315	-0.6591027	-0.6602186	-8e-06	1.3626824e-08
2.6002676153478593e-10	0.10746929	0.0005644323	-0.6589927	-0.6601079	-8e-06	1.3627106e-08
2.7003978802028426e-10	0.10747149	0.0005359289	-0.6588908	-0.6600052	-8e-06	1.3627385e-08
2.8000047793064814e-10	0.107473575	0.0005053885	-0.6587979	-0.65991163	-8e-06	1.3627649e-08
2.9001398741510614e-10	0.10747548	0.00047276274	-0.65871376	-0.65982664	-8e-06	1.3627891e-08
3.000273882637028e-10	0.10747714	0.00043849964	-0.6586388	-0.65975124	-8e-06	1.3628102e-08
3.100404025524175e-10	0.10747856	0.00040293142	-0.6585738	-0.6596858	-8e-06	1.3628281e-08
3.2000014175205693e-10	0.10747977	0.00036657296	-0.65851927	-0.6596308	-8e-06	1.3628434e-08
3.3001212796863804e-10	0.10748083	0.0003293235	-0.6584746	-0.6595857	-8e-06	1.362857e-08
3.400238440098084e-10	0.107481755	0.00029160973	-0.65844023	-0.65955114	-8e-06	1.3628687e-08
3.500354544025714e-10	0.10748249	0.00025367987	-0.65841645	-0.6595271	-8e-06	1.362878e-08
3.6004711787009373e-10	0.107482985	0.00021583124	-0.6584029	-0.65951335	-8e-06	1.3628841e-08
3.7000609864209213e-10	0.107483216	0.00017856272	-0.65839964	-0.65951014	-8e-06	1.3628871e-08
3.8001777704971226e-10	0.10748315	0.00014175501	-0.65840626	-0.6595167	-8e-06	1.3628863e-08
3.900294710878396e-10	0.10748295	0.00010584782	-0.65842277	-0.65953326	-8e-06	1.3628839e-08
4.0004111789449e-10	0.10748266	7.1123446e-05	-0.6584487	-0.6595593	-8e-06	1.3628799e-08
4.1005265790881416e-10	0.10748219	3.777092e-05	-0.65848356	-0.6595945	-8e-06	1.3628742e-08
4.2001139797389653e-10	0.10748152	6.1363326e-06	-0.6585268	-0.65963805	-8e-06	1.3628654e-08
4.300226771291712e-10	0.1074806	-2.3947654e-05	-0.65857846	-0.65968996	-8e-06	1.362854e-08
4.4003374659318296e-10	0.107479505	-5.205629e-05	-0.6586376	-0.65974945	-8e-06	1.36284015e-08
4.500446386598767e-10	0.1074783	-7.8005745e-05	-0.65870374	-0.659816	-8e-06	1.3628248e-08
4.6000267472243896e-10	0.10747701	-0.000101524194	-0.6587757	-0.6598885	-8e-06	1.3628083e-08
4.700132408764737e-10	0.107475616	-0.00012279385	-0.6588537	-0.6599672	-8e-06	1.3627908e-08
4.800237454527063e-10	0.10747413	-0.0001416111	-0.65893674	-0.66005075	-8e-06	1.362772e-08
4.900341799433932e-10	0.10747255	-0.00015788776	-0.659024	-0.66013867	-8e-06	1.3627518e-08
5.000446385600683e-10	0.107470825	-0.00017151597	-0.65911484	-0.6602301	-8e-06	1.3627302e-08
5.100023949756284e-10	0.10746908	-0.00018238997	-0.65920794	-0.66032386	-8e-06	1.3627082e-08
5.200129128203513e-10	0.10746732	-0.00019061302	-0.65930355	-0.66042024	-8e-06	1.3626858e-08
5.30023504948584e-10	0.10746556	-0.00019612291	-0.65940046	-0.6605179	-8e-06	1.3626632e-08
5.400341346896053e-10	0.107463785	-0.00019895987	-0.6594981	-0.6606161	-8e-06	1.3626407e-08
5.500448135172214e-10	0.107462	-0.00019917954	-0.6595955	-0.66071427	-8e-06	1.362618e-08
5.600028427730021e-10	0.10746021	-0.00019682945	-0.6596916	-0.660811	-8e-06	1.3625953e-08
5.700136336956856e-10	0.10745843	-0.00019193122	-0.6597866	-0.66090673	-8e-06	1.3625728e-08
5.800244448868627e-10	0.1074567	-0.00018458474	-0.6598795	-0.6610002	-8e-06	1.36255105e-08
5.900352959362412e-10	0.10745504	-0.00017490347	-0.6599695	-0.6610909	-8e-06	1.3625299e-08
6.000461602321545e-10	0.10745348	-0.0001630422	-0.6600561	-0.6611782	-8e-06	1.3625102e-08
6.100043460589011e-10	0.107452005	-0.00014921243	-0.6601383	-0.66126096	-8e-06	1.36249145e-08
6.200152303828601e-10	0.10745053	-0.000133373	-0.66021645	-0.66133976	-8e-06	1.3624727e-08
6.300261575603567e-10	0.10744912	-0.00011577159	-0.66028965	-0.6614135	-8e-06	1.36245495e-08
6.400370762491914e-10	0.10744786	-9.655977e-05	-0.66035753	-0.6614818	-8e-06	1.3624389e-08
6.50048045019525e-10	0.107446715	-7.58942e-05	-0.6604196	-0.6615444	-8e-06	1.3624243e-08
6.600063577488994e-10	0.107445665	-5.410422e-05	-0.66047525	-0.6616005	-8e-06	1.362411e-08
6.700173680442593e-10	0.107444756	-3.1172414e-05	-0.66052485	-0.6616505	-8e-06	1.3623993e-08
6.800283978265286e-10	0.1074439	-7.3811984e-06	-0.6605679	-0.6616939	-8e-06	1.3623887e-08
6.900394423889948e-10	0.107443154	1.7110982e-05	-0.6606042	-0.66173035	-8e-06	1.362379e-08
7.000504861781565e-10	0.10744254	4.209238e-05	-0.66063356	-0.66176	-8e-06	1.3623715e-08
7.100088744188997e-10	0.107442036	6.725579e-05	-0.66065586	-0.66178244	-8e-06	1.362365e-08
7.200199169728687e-10	0.10744167	9.26342e-05	-0.66067135	-0.6617981	-8e-06	1.36236045e-08
7.300309661514117e-10	0.107441455	0.000117923184	-0.6606798	-0.6618067	-8e-06	1.3623576e-08
7.4004203279745e-10	0.107441336	0.00014297111	-0.66068155	-0.6618085	-8e-06	1.3623562e-08
7.50000394225724e-10	0.107441396	0.00016741698	-0.6606768	-0.6618036	-8e-06	1.3623569e-08
7.600114568454908e-10	0.10744146	0.00019140249	-0.6606653	-0.6617921	-8e-06	1.3623579e-08
7.700225266816804e-10	0.1074416	0.00021460981	-0.6606475	-0.66177416	-8e-06	1.3623594e-08
7.800335422345742e-10	0.107441895	0.0002368661	-0.6606237	-0.6617503	-8e-06	1.3623632e-08
7.900446145146084e-10	0.10744232	0.00025808573	-0.66059417	-0.6617206	-8e-06	1.3623687e-08
8.000029616161899e-10	0.10744288	0.00027801335	-0.6605594	-0.6616856	-8e-06	1.3623757e-08
8.100139705099923e-10	0.1074436	0.00029672045	-0.6605195	-0.6616454	-8e-06	1.3623849e-08
8.200250103136598e-10	0.10744432	0.00031399608	-0.66047496	-0.66160053	-8e-06	1.3623939e-08
8.30036016198433e-10	0.10744503	0.00032971878	-0.6604262	-0.6615514	-8e-06	1.3624028e-08
8.400470549577923e-10	0.107445866	0.0003438342	-0.6603736	-0.66149855	-8e-06	1.3624135e-08
8.500054226172946e-10	0.10744683	0.00035624474	-0.6603182	-0.66144264	-8e-06	1.3624257e-08
8.600164724951626e-10	0.10744787	0.00036704665	-0.66025966	-0.6613836	-8e-06	1.3624388e-08
8.700275259667345e-10	0.107448936	0.00037604602	-0.6601987	-0.66132236	-8e-06	1.3624526e-08
8.800385490365204e-10	0.10745002	0.00038320082	-0.660136	-0.6612591	-8e-06	1.3624663e-08
8.90049599495933e-10	0.10745115	0.0003885581	-0.6600718	-0.66119456	-8e-06	1.3624804e-08
9.000079577272837e-10	0.10745232	0.0003921033	-0.66000724	-0.6611295	-8e-06	1.3624954e-08
9.100190035661827e-10	0.1074535	0.00039389695	-0.6599419	-0.66106373	-8e-06	1.3625104e-08
9.200300358912946e-10	0.1074547	0.00039393068	-0.65987676	-0.6609981	-8e-06	1.36252565e-08
9.300410633458272e-10	0.10745593	0.00039220884	-0.65981215	-0.6609331	-8e-06	1.3625413e-08
9.400521118068253e-10	0.107457116	0.00038878724	-0.65974873	-0.6608692	-8e-06	1.3625564e-08
9.500104969894773e-10	0.10745831	0.0003837717	-0.65968704	-0.6608071	-8e-06	1.3625712e-08
9.600215624569972e-10	0.10745946	0.0003771872	-0.659627	-0.6607465	-8e-06	1.3625859e-08
9.700326040825071e-10	0.10746056	0.00036914114	-0.65956926	-0.66068834	-8e-06	1.3626e-08
9.800436452701386e-10	0.107461624	0.0003597343	-0.65951425	-0.6606329	-8e-06	1.3626135e-08
9.9000200642754e-10	0.107462645	0.00034910208	-0.65946233	-0.6605807	-8e-06	1.3626261e-08
1.0000130377285772e-09	0.107463606	0.00033722934	-0.65941364	-0.66053164	-8e-06	1.3626385e-08
1.0100240862976194e-09	0.107464574	0.00032428937	-0.6593685	-0.6604862	-8e-06	1.3626508e-08
1.020035114013969e-09	0.10746546	0.00031041197	-0.6593274	-0.6604447	-8e-06	1.3626621e-08
1.030046121410597e-09	0.10746623	0.00029570173	-0.6592902	-0.66040725	-8e-06	1.3626718e-08
1.0400044472869836e-09	0.107466854	0.00028037874	-0.65925753	-0.6603743	-8e-06	1.3626797e-08
1.0500154758559446e-09	0.10746744	0.00026439942	-0.65922904	-0.6603457	-8e-06	1.3626873e-08
1.0600265163881979e-09	0.10746804	0.0002479794	-0.65920514	-0.66032153	-8e-06	1.3626947e-08
1.070037524211615e-09	0.107468545	0.00023127154	-0.659186	-0.6603021	-8e-06	1.36270115e-08
1.0800485479502627e-09	0.107468866	0.00021436664	-0.6591712	-0.6602873	-8e-06	1.3627051e-08
1.0900068602717728e-09	0.1074691	0.00019743606	-0.65916127	-0.66027725	-8e-06	1.3627082e-08
1.1000178473501532e-09	0.107469305	0.00018047911	-0.65915596	-0.6602719	-8e-06	1.3627107e-08
1.110028818863103e-09	0.10746939	0.00016376925	-0.65915513	-0.66027105	-8e-06	1.3627118e-08
1.1200398048443546e-09	0.1074693	0.0001473893	-0.65915877	-0.6602746	-8e-06	1.36271066e-08
1.1300507509738073e-09	0.10746924	0.00013136936	-0.6591667	-0.6602826	-8e-06	1.3627098e-08
1.140009032326957e-09	0.10746918	0.000115952906	-0.6591788	-0.66029483	-8e-06	1.3627092e-08
1.150020017269717e-09	0.107469	0.00010111956	-0.65919507	-0.6603111	-8e-06	1.362707e-08
1.16003094527951e-09	0.10746862	8.6990694e-05	-0.65921503	-0.66033125	-8e-06	1.3627022e-08
1.1700418991878495e-09	0.10746815	7.3624964e-05	-0.6592386	-0.66035503	-8e-06	1.3626961e-08
1.1800001515756847e-09	0.10746769	6.12334e-05	-0.65926546	-0.660382	-8e-06	1.3626903e-08
1.1900111119477526e-09	0.10746723	4.9790626e-05	-0.6592954	-0.66041225	-8e-06	1.3626845e-08
1.2000220432647873e-09	0.10746669	3.9376922e-05	-0.6593283	-0.6604453	-8e-06	1.3626776e-08
1.210033011886808e-09	0.10746606	2.99906e-05	-0.65936357	-0.6604808	-8e-06	1.3626697e-08
1.2200439895839458e-09	0.10746534	2.168506e-05	-0.659401	-0.6605185	-8e-06	1.3626604e-08
1.2300022643396784e-09	0.107464604	1.4584774e-05	-0.6594401	-0.66055787	-8e-06	1.36265115e-08
1.240013236483963e-09	0.10746389	8.677333e-06	-0.6594809	-0.66059905	-8e-06	1.362642e-08
1.2500242042986743e-09	0.10746317	3.996206e-06	-0.65952295	-0.6606414	-8e-06	1.362633e-08
1.2600351759483653e-09	0.10746241	4.9238076e-07	-0.6595659	-0.66068465	-8e-06	1.3626234e-08
1.2700461304727824e-09	0.1074616	-1.8286279e-06	-0.65960944	-0.6607284	-8e-06	1.3626131e-08
1.2800043735022628e-09	0.107460774	-2.9520595e-06	-0.6596529	-0.6607722	-8e-06	1.36260265e-08
1.2900153613428804e-09	0.10745995	-2.8921102e-06	-0.65969646	-0.6608161	-8e-06	1.3625922e-08
1.300026333588985e-09	0.10745915	-1.6487485e-06	-0.6597396	-0.6608596	-8e-06	1.362582e-08
1.310037330861006e-09	0.107458375	7.3205285e-07	-0.659782	-0.6609023	-8e-06	1.3625721e-08
1.3200483265350738e-09	0.10745762	4.185738e-06	-0.6598234	-0.660944	-8e-06	1.3625628e-08
1.3300066150729554e-09	0.107456885	8.618668e-06	-0.65986335	-0.6609841	-8e-06	1.3625533e-08
1.340017577624373e-09	0.10745616	1.40393695e-05	-0.6599018	-0.66102296	-8e-06	1.3625441e-08
1.3500285475648126e-09	0.10745547	2.039748e-05	-0.6599385	-0.6610599	-8e-06	1.3625353e-08
1.3600395415523217e-09	0.107454814	2.761895e-05	-0.6599732	-0.6610949	-8e-06	1.3625271e-08
1.3700505430164381e-09	0.107454196	3.5625402e-05	-0.6600057	-0.66112757	-8e-06	1.3625192e-08
1.38000884788265e-09	0.107453614	4.428418e-05	-0.6600356	-0.6611577	-8e-06	1.3625117e-08
1.390019828488807e-09	0.10745305	5.3609834e-05	-0.6600629	-0.66118526	-8e-06	1.3625047e-08
1.4000308129174016e-09	0.10745256	6.347199e-05	-0.6600876	-0.6612101	-8e-06	1.3624983e-08
1.4100418116793845e-09	0.107452124	7.380296e-05	-0.66010934	-0.6612321	-8e-06	1.362493e-08
1.4200001218248355e-09	0.10745179	8.446987e-05	-0.66012806	-0.66125095	-8e-06	1.3624887e-08
1.4300111432749315e-09	0.1074515	9.5493786e-05	-0.6601439	-0.6612669	-8e-06	1.3624851e-08
1.4400221147835545e-09	0.10745124	0.000106704225	-0.6601566	-0.6612798	-8e-06	1.3624815e-08
1.4500331325301082e-09	0.10745093	0.000118009426	-0.66016626	-0.6612894	-8e-06	1.36247795e-08
1.4600441691322185e-09	0.10745071	0.00012935374	-0.6601727	-0.66129595	-8e-06	1.3624749e-08
1.4700024659523986e-09	0.1074506	0.00014062384	-0.66017604	-0.6612993	-8e-06	1.3624735e-08
1.480013472868851e-09	0.10745064	0.00015183778	-0.6601764	-0.66129965	-8e-06	1.3624741e-08
1.4900244535773652e-09	0.10745079	0.00016282193	-0.66017383	-0.661297	-8e-06	1.3624759e-08
1.5000354612150892e-09	0.10745083	0.00017350116	-0.6601683	-0.6612915	-8e-06	1.3624766e-08
1.5100464704361504e-09	0.10745078	0.0001837986	-0.66015995	-0.66128314	-8e-06	1.362476e-08
1.5200047694983043e-09	0.107450806	0.00019361194	-0.6601489	-0.6612721	-8e-06	1.3624763e-08
1.5300157611917441e-09	0.107451014	0.00020306243	-0.6601354	-0.66125846	-8e-06	1.3624788e-08
1.5400267543600244e-09	0.10745138	0.00021201967	-0.6601195	-0.6612423	-8e-06	1.36248355e-08
1.5500377525251372e-09	0.10745181	0.00022034891	-0.66010123	-0.66122407	-8e-06	1.36248905e-08
1.5600487741760955e-09	0.10745218	0.00022794997	-0.660081	-0.66120374	-8e-06	1.3624936e-08
1.5700070961006838e-09	0.10745246	0.0002347894	-0.66005915	-0.6611816	-8e-06	1.36249705e-08
1.5800180803762191e-09	0.10745273	0.00024096316	-0.6600354	-0.6611577	-8e-06	1.3625005e-08
1.5900290925737229e-09	0.1074531	0.00024645712	-0.6600102	-0.66113245	-8e-06	1.3625053e-08
1.600040093066316e-09	0.10745361	0.00025123553	-0.6599839	-0.6611059	-8e-06	1.3625116e-08
1.6100510799709696e-09	0.10745419	0.00025520052	-0.6599564	-0.6610782	-8e-06	1.3625192e-08
1.6200093879503517e-09	0.10745478	0.0002582873	-0.6599283	-0.66105	-8e-06	1.3625265e-08
1.6300204056076506e-09	0.10745528	0.0002605301	-0.65989965	-0.66102105	-8e-06	1.362533e-08
1.6400314142915022e-09	0.10745574	0.0002619586	-0.65987045	-0.6609917	-8e-06	1.3625386e-08
1.6500424015696287e-09	0.10745618	0.00026262758	-0.65984124	-0.66096216	-8e-06	1.3625444e-08
1.6600007047168128e-09	0.1074567	0.00026256868	-0.65981215	-0.66093296	-8e-06	1.36255105e-08
1.6700116913976414e-09	0.107457295	0.000261747	-0.65978336	-0.6609039	-8e-06	1.3625585e-08
1.6800226829164015e-09	0.1074579	0.00026014098	-0.65975505	-0.6608754	-8e-06	1.36256615e-08
1.6900336641351323e-09	0.10745846	0.0002577483	-0.65972733	-0.6608475	-8e-06	1.36257325e-08
1.7000446564346894e-09	0.10745894	0.0002546491	-0.65970063	-0.6608206	-8e-06	1.3625794e-08
1.710002936549363e-09	0.107459374	0.00025095875	-0.659675	-0.6607948	-8e-06	1.3625848e-08
1.7200139320091875e-09	0.10745981	0.00024668375	-0.65965056	-0.6607701	-8e-06	1.3625904e-08
1.7300249277284334e-09	0.10746029	0.00024186475	-0.6596275	-0.6607469	-8e-06	1.36259635e-08
1.7400358952820321e-09	0.10746075	0.00023650321	-0.6596059	-0.6607252	-8e-06	1.3626022e-08
1.7500468983960604e-09	0.10746117	0.00023063023	-0.659586	-0.6607051	-8e-06	1.3626077e-08
1.7600052049619328e-09	0.10746152	0.00022435313	-0.65956783	-0.66068685	-8e-06	1.36261225e-08
1.7700161737847417e-09	0.10746182	0.00021769898	-0.6595515	-0.6606704	-8e-06	1.3626159e-08
1.7800271588089462e-09	0.10746209	0.00021077694	-0.6595371	-0.6606558	-8e-06	1.36261935e-08
1.790038114427359e-09	0.10746236	0.00020362686	-0.6595246	-0.6606432	-8e-06	1.3626229e-08
1.8000491234539344e-09	0.107462645	0.0001962729	-0.6595142	-0.66063267	-8e-06	1.3626264e-08
1.8100074466229998e-09	0.10746289	0.00018879467	-0.65950584	-0.6606243	-8e-06	1.3626295e-08
1.8200184441199355e-09	0.10746305	0.0001811916	-0.65949965	-0.66061807	-8e-06	1.3626315e-08
1.830029412312597e-09	0.10746314	0.00017356571	-0.6594955	-0.6606139	-8e-06	1.3626324e-08
1.8400404100885079e-09	0.10746314	0.00016599399	-0.65949345	-0.6606118	-8e-06	1.3626324e-08
1.8500513769449203e-09	0.107463084	0.00015854803	-0.6594933	-0.66061175	-8e-06	1.3626319e-08
1.8600096721707747e-09	0.107463054	0.00015129455	-0.6594952	-0.66061354	-8e-06	1.3626315e-08
1.8700206853588055e-09	0.10746308	0.00014418132	-0.659499	-0.66061735	-8e-06	1.3626319e-08
1.880031685481985e-09	0.107463144	0.00013728705	-0.6595046	-0.660623	-8e-06	1.3626326e-08
1.8900426659459038e-09	0.107463114	0.00013066792	-0.6595121	-0.6606305	-8e-06	1.3626322e-08
1.9000009566471497e-09	0.10746291	0.0001243868	-0.65952116	-0.66063976	-8e-06	1.3626297e-08
1.910011953945931e-09	0.10746263	0.000118434116	-0.65953195	-0.6606505	-8e-06	1.3626263e-08
1.9200229332612673e-09	0.107462354	0.000112914735	-0.6595442	-0.6606629	-8e-06	1.3626226e-08
1.930033926056629e-09	0.107462145	0.000107874504	-0.6595578	-0.6606766	-8e-06	1.3626201e-08
1.9400449234807713e-09	0.107461944	0.00010330469	-0.6595727	-0.66069156	-8e-06	1.3626175e-08
1.9500032228768762e-09	0.10746172	9.920068e-05	-0.65958863	-0.6607076	-8e-06	1.36261455e-08
1.960014203865471e-09	0.107461415	9.553193e-05	-0.65960544	-0.6607246	-8e-06	1.36261065e-08
1.9700252075553087e-09	0.107461065	9.2384034e-05	-0.65962315	-0.6607424	-8e-06	1.3626063e-08
1.9800362394965067e-09	0.107460685	8.980063e-05	-0.65964156	-0.6607609	-8e-06	1.3626015e-08
1.9900472302499384e-09	0.10746035	8.7782224e-05	-0.6596604	-0.6607799	-8e-06	1.3625972e-08
2e-09	0.10746002	8.631831e-05	-0.6596796	-0.6607992	-8e-06	1.3625931e-08
2.010014962235714e-09	0.10745971	8.536939e-05	-0.6596991	-0.66081876	-8e-06	1.36258915e-08
2.0200259385286287e-09	0.10745937	8.493709e-05	-0.6597187	-0.66083854	-8e-06	1.3625847e-08
2.0300369187179007e-09	0.107458994	8.501239e-05	-0.6597381	-0.66085815	-8e-06	1.3625801e-08
2.040047924941838e-09	0.10745861	8.561414e-05	-0.6597573	-0.6608775	-8e-06	1.3625752e-08
2.05e-09	0.10745824	8.673617e-05	-0.65977615	-0.66089654	-8e-06	1.3625704e-08
2.060015204139384e-09	0.1074579	8.836379e-05	-0.6597947	-0.66091514	-8e-06	1.36256615e-08
2.0700261857470657e-09	0.107457586	9.0446636e-05	-0.65981245	-0.6609331	-8e-06	1.36256215e-08
2.0800371971315876e-09	0.10745729	9.293724e-05	-0.6598297	-0.66095036	-8e-06	1.3625584e-08
2.090048179001355e-09	0.10745697	9.5814685e-05	-0.659846	-0.6609668	-8e-06	1.3625545e-08
2.1e-09	0.10745668	9.905277e-05	-0.65986127	-0.66098225	-8e-06	1.3625505e-08
2.1100153235972926e-09	0.10745637	0.00010267994	-0.6598757	-0.66099674	-8e-06	1.3625467e-08
2.1200262989325063e-09	0.10745609	0.00010662851	-0.659889	-0.66101015	-8e-06	1.3625432e-08
2.1300372870086853e-09	0.10745586	0.00011085975	-0.6599012	-0.66102237	-8e-06	1.3625403e-08
2.140048267079164e-09	0.10745563	0.000115313866	-0.659912	-0.66103333	-8e-06	1.3625375e-08
2.1500000000000002e-09	0.107455455	0.00011991928	-0.65992147	-0.66104287	-8e-06	1.3625351e-08
2.16001535575966e-09	0.10745529	0.00012472626	-0.6599297	-0.6610512	-8e-06	1.362533e-08
2.170026336585307e-09	0.10745514	0.00012967615	-0.65993655	-0.6610581	-8e-06	1.3625313e-08
2.1800373608117567e-09	0.10745502	0.00013471326	-0.6599421	-0.66106355	-8e-06	1.36252964e-08
2.1900483856099953e-09	0.10745491	0.00013979251	-0.65994614	-0.6610677	-8e-06	1.3625284e-08
2.2000000000000003e-09	0.107454844	0.00014484668	-0.65994877	-0.66107035	-8e-06	1.3625274e-08
2.2100154186290077e-09	0.10745484	0.00014990286	-0.65995	-0.66107166	-8e-06	1.36252725e-08
2.220026420083196e-09	0.107454866	0.00015489136	-0.65995	-0.66107166	-8e-06	1.3625276e-08
2.230037386855269e-09	0.10745488	0.00015977204	-0.6599488	-0.66107035	-8e-06	1.3625279e-08
2.2400483805886215e-09	0.10745489	0.00016452436	-0.65994614	-0.6610677	-8e-06	1.3625279e-08
2.2500000000000003e-09	0.107454866	0.00016909368	-0.6599423	-0.66106385	-8e-06	1.3625279e-08
2.260015417123414e-09	0.10745489	0.00017351107	-0.65993726	-0.66105884	-8e-06	1.362528e-08
2.270026409746372e-09	0.10745497	0.00017771334	-0.6599311	-0.66105264	-8e-06	1.362529e-08
2.2800373815670877e-09	0.10745513	0.0001816702	-0.65992385	-0.6610453	-8e-06	1.3625311e-08
2.2900483876820902e-09	0.10745534	0.0001853574	-0.6599157	-0.6610371	-8e-06	1.3625337e-08
2.3000000000000003e-09	0.10745551	0.00018872222	-0.65990657	-0.6610279	-8e-06	1.3625358e-08
2.3100154275168956e-09	0.107455656	0.00019177678	-0.65989655	-0.66101784	-8e-06	1.3625377e-08
2.320026439888424e-09	0.107455775	0.00019450378	-0.6598859	-0.66100705	-8e-06	1.3625391e-08
2.3300374392344064e-09	0.10745593	0.00019691118	-0.6598745	-0.66099566	-8e-06	1.3625413e-08
2.340048425943983e-09	0.10745616	0.00019899002	-0.65986264	-0.6609837	-8e-06	1.3625441e-08
2.3500000000000004e-09	0.10745643	0.00020071435	-0.65985036	-0.6609713	-8e-06	1.3625475e-08
2.3600154023133736e-09	0.10745669	0.00020206966	-0.65983766	-0.6609586	-8e-06	1.3625509e-08
2.370026416222798e-09	0.107456915	0.00020302382	-0.6598248	-0.66094553	-8e-06	1.3625537e-08
2.3800374225702566e-09	0.10745712	0.000203618	-0.6598117	-0.66093236	-8e-06	1.3625564e-08
2.390048419309767e-09	0.10745733	0.00020387872	-0.65979856	-0.6609192	-8e-06	1.3625591e-08
2.4000000000000004e-09	0.10745758	0.00020380352	-0.6597856	-0.660906	-8e-06	1.36256215e-08
2.4100153882699537e-09	0.10745783	0.00020338333	-0.65977263	-0.6608931	-8e-06	1.36256535e-08
2.420026369150701e-09	0.10745809	0.00020261468	-0.65976	-0.66088027	-8e-06	1.3625685e-08
2.4300373609829927e-09	0.107458346	0.00020150456	-0.6597476	-0.66086787	-8e-06	1.3625718e-08
2.4400483679758026e-09	0.10745856	0.00020008408	-0.6597357	-0.6608558	-8e-06	1.3625743e-08
2.4500000000000004e-09	0.10745875	0.00019839936	-0.6597243	-0.6608444	-8e-06	1.362577e-08
2.460015423010831e-09	0.10745896	0.00019644538	-0.6597134	-0.66083336	-8e-06	1.3625796e-08
2.4700264102566786e-09	0.10745916	0.00019424621	-0.6597032	-0.6608231	-8e-06	1.3625821e-08
2.4800374194835706e-09	0.10745937	0.0001918144	-0.6596936	-0.66081345	-8e-06	1.3625847e-08
2.490048407927402e-09	0.107459545	0.00018916295	-0.6596848	-0.6608045	-8e-06	1.3625873e-08
2.5000000000000005e-09	0.1074597	0.00018633452	-0.6596768	-0.6607965	-8e-06	1.362589e-08
2.510015433876517e-09	0.10745983	0.0001833316	-0.65966964	-0.66078925	-8e-06	1.36259075e-08
2.5200263991977044e-09	0.10745998	0.00018021486	-0.6596633	-0.6607829	-8e-06	1.3625924e-08
2.5300373978817924e-09	0.107460104	0.00017699634	-0.6596579	-0.6607775	-8e-06	1.362594e-08
2.540048404121866e-09	0.10746021	0.00017369959	-0.6596534	-0.6607729	-8e-06	1.3625953e-08
2.5500000000000005e-09	0.107460275	0.0001703492	-0.65964985	-0.66076934	-8e-06	1.3625964e-08
2.5600154052962065e-09	0.107460335	0.00016694416	-0.6596472	-0.6607667	-8e-06	1.3625971e-08
2.5700263916738656e-09	0.107460335	0.0001635421	-0.6596455	-0.66076505	-8e-06	1.3625971e-08
2.580037385619006e-09	0.10746034	0.00016016915	-0.6596448	-0.6607642	-8e-06	1.3625972e-08
2.5900483631147903e-09	0.10746036	0.00015685285	-0.6596448	-0.6607642	-8e-06	1.3625973e-08
2.6000000000000005e-09	0.10746038	0.00015362429	-0.65964574	-0.6607652	-8e-06	1.3625977e-08
2.610015395781827e-09	0.10746038	0.00015044789	-0.6596475	-0.66076696	-8e-06	1.3625977e-08
2.620026382436714e-09	0.107460365	0.00014736825	-0.65965015	-0.6607695	-8e-06	1.3625973e-08
2.630037380094492e-09	0.107460305	0.00014441597	-0.6596534	-0.6607729	-8e-06	1.3625966e-08
2.640048388142468e-09	0.10746024	0.00014162264	-0.6596576	-0.66077715	-8e-06	1.3625958e-08
2.6500000000000006e-09	0.10746017	0.00013901583	-0.65966237	-0.6607819	-8e-06	1.3625951e-08
2.6600154317638855e-09	0.1074601	0.000136579	-0.6596679	-0.6607875	-8e-06	1.3625941e-08
2.6700264196858557e-09	0.10745996	0.00013432268	-0.6596741	-0.66079366	-8e-06	1.36259235e-08
2.680037404974002e-09	0.107459836	0.00013226374	-0.6596807	-0.6608004	-8e-06	1.3625907e-08
2.6900483885254305e-09	0.10745972	0.00013042324	-0.6596879	-0.66080767	-8e-06	1.36258915e-08
2.7000000000000006e-09	0.107459605	0.00012882976	-0.65969545	-0.6608152	-8e-06	1.3625878e-08
2.7100154017472175e-09	0.10745948	0.00012747032	-0.6597034	-0.6608232	-8e-06	1.3625861e-08
2.720026416386649e-09	0.10745931	0.00012633928	-0.6597116	-0.6608315	-8e-06	1.3625841e-08
2.7300374033234883e-09	0.10745914	0.00012543776	-0.65972006	-0.6608401	-8e-06	1.3625819e-08
2.7400483900508277e-09	0.10745898	0.00012478493	-0.6597287	-0.6608487	-8e-06	1.3625798e-08
2.7500000000000006e-09	0.10745884	0.0001243843	-0.6597374	-0.66085744	-8e-06	1.3625781e-08
2.7600154202574964e-09	0.10745868	0.00012422385	-0.6597462	-0.6608663	-8e-06	1.3625761e-08
2.7700263998955427e-09	0.10745854	0.00012429606	-0.6597548	-0.660875	-8e-06	1.3625742e-08
2.780037409049942e-09	0.107458375	0.00012459139	-0.65976346	-0.6608838	-8e-06	1.3625722e-08
2.7900484051654532e-09	0.10745819	0.00012510431	-0.6597719	-0.66089225	-8e-06	1.3625699e-08
2.8000000000000007e-09	0.107458025	0.00012582885	-0.65978014	-0.66090053	-8e-06	1.3625678e-08
2.8100154163791633e-09	0.10745789	0.00012676849	-0.6597881	-0.6609085	-8e-06	1.3625661e-08
2.82002641847633e-09	0.10745775	0.0001279147	-0.6597957	-0.6609162	-8e-06	1.3625643e-08
2.8300374019196793e-09	0.107457615	0.00012923792	-0.6598029	-0.6609235	-8e-06	1.3625624e-08
2.8400483825829022e-09	0.10745748	0.00013071355	-0.6598098	-0.66093045	-8e-06	1.3625607e-08
2.8500000000000007e-09	0.10745735	0.00013232607	-0.65981615	-0.6609368	-8e-06	1.3625592e-08
2.8600153901087537e-09	0.10745723	0.00013410105	-0.659822	-0.66094273	-8e-06	1.3625577e-08
2.870026392074844e-09	0.10745714	0.00013599887	-0.65982735	-0.66094804	-8e-06	1.3625564e-08
2.880037416372813e-09	0.107457034	0.00013799948	-0.6598321	-0.66095287	-8e-06	1.3625551e-08
2.8900484159163114e-09	0.10745692	0.00014008884	-0.65983623	-0.66095704	-8e-06	1.3625539e-08
2.9000000000000007e-09	0.10745687	0.00014223035	-0.65983987	-0.66096073	-8e-06	1.3625531e-08
2.9100154087587715e-09	0.107456826	0.00014443403	-0.65984285	-0.6609637	-8e-06	1.3625525e-08
2.9200263853221387e-09	0.10745679	0.00014668283	-0.6598453	-0.6609661	-8e-06	1.3625521e-08
2.930037374440721e-09	0.10745672	0.0001489497	-0.659847	-0.6609679	-8e-06	1.3625515e-08
2.940048351924683e-09	0.10745671	0.00015120952	-0.6598482	-0.660969	-8e-06	1.36255105e-08
2.9500000000000008e-09	0.10745668	0.00015344529	-0.6598487	-0.66096956	-8e-06	1.3625507e-08
2.960015384564142e-09	0.107456684	0.00015567103	-0.6598487	-0.66096956	-8e-06	1.3625507e-08
2.970026381329307e-09	0.107456684	0.00015784764	-0.6598481	-0.66096896	-8e-06	1.3625507e-08
2.9800373884789014e-09	0.1074567	0.0001599726	-0.6598469	-0.66096777	-8e-06	1.362551e-08
2.9900483828703964e-09	0.10745671	0.00016202034	-0.6598452	-0.6609661	-8e-06	1.3625511e-08
3.000000000000001e-09	0.107456736	0.00016397181	-0.65984297	-0.6609639	-8e-06	1.3625515e-08
3.010015391195126e-09	0.10745677	0.00016584256	-0.6598402	-0.66096115	-8e-06	1.36255185e-08
3.0200264059657387e-09	0.107456855	0.00016759998	-0.65983707	-0.66095793	-8e-06	1.3625527e-08
3.0300374086418615e-09	0.1074569	0.00016923457	-0.65983343	-0.66095424	-8e-06	1.36255345e-08
3.0400483933075947e-09	0.10745696	0.00017074581	-0.65982944	-0.6609502	-8e-06	1.3625542e-08
3.050000000000001e-09	0.10745702	0.00017211841	-0.6598251	-0.6609458	-8e-06	1.362555e-08
3.0600112878714366e-09	0.11818143	-0.0077599636	-0.6562618	-0.6573	-8e-06	1.4985407e-08
3.0700225103745316e-09	0.11177844	-0.025694778	-0.65264225	-0.65362394	-8e-06	1.4173506e-08
3.080033661986318e-09	0.09628944	-0.0370381	-0.6493457	-0.65033907	-8e-06	1.2209501e-08
3.0900447704828276e-09	0.08485306	-0.031858582	-0.6461153	-0.6470896	-8e-06	1.07593685e-08
3.100000000000001e-09	0.085142724	-0.015443438	-0.64260983	-0.6435701	-8e-06	1.0796098e-08
3.110013536371116e-09	0.09495186	-0.0024143825	-0.63875055	-0.6396797	-8e-06	1.2039897e-08
3.1200248933201957e-09	0.10557883	-0.0029674598	-0.63454795	-0.63541406	-8e-06	1.3387395e-08
3.130036146369619e-09	0.109115355	-0.014843167	-0.63013166	-0.63096446	-8e-06	1.3835827e-08
3.1400474511071545e-09	0.103813715	-0.026379133	-0.62581795	-0.6265923	-8e-06	1.31635804e-08
3.150000000000001e-09	0.094687544	-0.027701866	-0.62160695	-0.62236375	-8e-06	1.2006379e-08
3.160015512330992e-09	0.08880712	-0.018634122	-0.6173906	-0.61811864	-8e-06	1.1260743e-08
3.1700267410897584e-09	0.09039392	-0.00813492	-0.61312664	-0.61381674	-8e-06	1.146195e-08
3.180037558737384e-09	0.09760783	-0.0049401643	-0.60876054	-0.60942346	-8e-06	1.2376672e-08
3.190048274970524e-09	0.10446209	-0.010787438	-0.60425895	-0.60487187	-8e-06	1.3245795e-08
3.200000000000001e-09	0.105979025	-0.01986652	-0.59977305	-0.60035557	-8e-06	1.3438141e-08
3.210015267943687e-09	0.101298586	-0.02457042	-0.59541464	-0.595985	-8e-06	1.28446604e-08
3.220026160709448e-09	0.094562225	-0.021773513	-0.59120613	-0.59176236	-8e-06	1.19904895e-08
3.2300369824168252e-09	0.09148904	-0.015122794	-0.5870922	-0.58763355	-8e-06	1.160081e-08
3.2400477339508675e-09	0.09440407	-0.010972228	-0.5830961	-0.5836217	-8e-06	1.1970436e-08
3.250000000000001e-09	0.10062462	-0.01238213	-0.579131	-0.5796561	-8e-06	1.2759201e-08
3.260014900304986e-09	0.10508455	-0.017523022	-0.5750371	-0.5755671	-8e-06	1.3324721e-08
3.2700257435111916e-09	0.10438226	-0.022147965	-0.57095593	-0.5714722	-8e-06	1.3235671e-08