# t (s)	mx ()	my ()	mz ()	m_z_yrange7_ ()	I_x (A)	ext_dwxpos (m)
0	0.10794099	-5.4087675e-05	0.68652713	0.6862558	-8e-06	1.3686918e-08
1.0007713355233898e-11	0.107943006	-8.556344e-05	0.6865221	0.68625087	-8e-06	1.3687173e-08
2.0044392252871002e-11	0.107947156	-0.00011478438	0.6865091	0.68623763	-8e-06	1.3687699e-08
3.003716602673285e-11	0.1079503	-0.00014107561	0.68648815	0.6862167	-8e-06	1.3688098e-08
4.0035063477360256e-11	0.107950985	-0.00016524589	0.68646	0.68618834	-8e-06	1.3688185e-08
5.001302414486837e-11	0.10795002	-0.00018842288	0.6864249	0.6861533	-8e-06	1.3688061e-08
6.004251235768272e-11	0.10794974	-0.0002111095	0.6863834	0.6861115	-8e-06	1.3688028e-08
7.00015686702721e-11	0.10795194	-0.00023226232	0.6863362	0.68606424	-8e-06	1.3688306e-08
8.001788568362614e-11	0.107956484	-0.00025078325	0.6862835	0.68601143	-8e-06	1.3688881e-08
9.003995002804528e-11	0.10796159	-0.00026562388	0.68622637	0.68595403	-8e-06	1.36895295e-08
1.0000463761880448e-10	0.10796537	-0.00027675557	0.6861656	0.6858931	-8e-06	1.3690011e-08
1.1002163674978119e-10	0.10796744	-0.00028524187	0.6861014	0.6858287	-8e-06	1.3690271e-08
1.2004003826305366e-10	0.107968844	-0.00029189503	0.68603486	0.6857619	-8e-06	1.3690449e-08
1.3000658596079203e-10	0.10797113	-0.00029688454	0.68596685	0.6856938	-8e-06	1.369074e-08
1.400172358116035e-10	0.10797514	-0.00029955202	0.6858977	0.6856244	-8e-06	1.3691247e-08
1.5002501206803968e-10	0.1079802	-0.00029897338	0.6858284	0.6855549	-8e-06	1.3691889e-08
1.6003362620923118e-10	0.10798498	-0.00029484282	0.6857595	0.68548584	-8e-06	1.3692495e-08
1.700433201024229e-10	0.107988454	-0.00028767972	0.6856919	0.685418	-8e-06	1.3692937e-08
1.8000128648608897e-10	0.10799071	-0.0002784709	0.6856265	0.68535244	-8e-06	1.3693222e-08
1.9001270785785417e-10	0.10799271	-0.0002677714	0.6855633	0.6852891	-8e-06	1.3693476e-08
2.0002492930803706e-10	0.10799539	-0.0002556559	0.6855032	0.68522877	-8e-06	1.3693815e-08
2.1003801889595077e-10	0.10799896	-0.00024164112	0.68544674	0.68517226	-8e-06	1.3694269e-08
2.200519443168753e-10	0.10800276	-0.00022532637	0.6853945	0.6851198	-8e-06	1.369475e-08
2.3001391708747124e-10	0.1080058	-0.0002069739	0.685347	0.68507224	-8e-06	1.36951375e-08
2.4002909119838275e-10	0.10800771	-0.00018709716	0.6853044	0.6850295	-8e-06	1.3695376e-08
2.50044688067272e-10	0.108008735	-0.00016657512	0.68526703	0.6849922	-8e-06	1.3695509e-08
2.6000796190820763e-10	0.108009666	-0.00014593524	0.6852355	0.6849605	-8e-06	1.3695626e-08
2.700244540871654e-10	0.10801104	-0.00012486114	0.6852096	0.6849345	-8e-06	1.3695799e-08
2.8004152095474577e-10	0.10801273	-0.000103243015	0.6851895	0.68491447	-8e-06	1.3696014e-08
2.900063236204001e-10	0.10801408	-8.117814e-05	0.6851756	0.6849005	-8e-06	1.36961855e-08
3.000241623975131e-10	0.10801466	-5.8765792e-05	0.68516755	0.6848925	-8e-06	1.3696258e-08
3.100379513969694e-10	0.10801435	-3.6759582e-05	0.68516564	0.68489057	-8e-06	1.369622e-08
3.2004690003621194e-10	0.10801349	-1.5689999e-05	0.6851695	0.6848944	-8e-06	1.369611e-08
3.300036399553868e-10	0.10801269	4.2228417e-06	0.68517894	0.6849039	-8e-06	1.369601e-08
3.4001339112771787e-10	0.10801217	2.321159e-05	0.6851939	0.68491894	-8e-06	1.3695943e-08
3.5002349081596397e-10	0.108011596	4.1279756e-05	0.6852141	0.68493915	-8e-06	1.369587e-08
3.600338341484832e-10	0.1080106	5.8377704e-05	0.68523914	0.6849643	-8e-06	1.3695746e-08
3.700442281056727e-10	0.10800903	7.418704e-05	0.6852687	0.684994	-8e-06	1.3695545e-08
3.800020151036437e-10	0.10800693	8.822039e-05	0.68530214	0.68502754	-8e-06	1.3695279e-08
3.9001249186636824e-10	0.10800466	0.000100400044	0.68533945	0.6850649	-8e-06	1.369499e-08
4.000229153362734e-10	0.10800248	0.00011066333	0.6853799	0.6851056	-8e-06	1.3694715e-08
4.10033332073319e-10	0.1080005	0.000119144104	0.6854232	0.68514895	-8e-06	1.3694465e-08
4.200437361017515e-10	0.107998505	0.00012590807	0.68546855	0.68519455	-8e-06	1.3694212e-08
4.300015581852622e-10	0.10799627	0.00013091562	0.68551546	0.6852416	-8e-06	1.3693927e-08
4.400122178220195e-10	0.10799366	0.00013406745	0.68556386	0.6852899	-8e-06	1.36935965e-08
4.500230433003048e-10	0.107990906	0.00013517757	0.68561286	0.6853391	-8e-06	1.36932465e-08
4.6003405065215e-10	0.10798823	0.00013425147	0.6856619	0.6853884	-8e-06	1.3692908e-08
4.700451738662502e-10	0.10798581	0.00013143558	0.68571067	0.6854372	-8e-06	1.3692601e-08
4.800038181328834e-10	0.107983634	0.0001269505	0.6857583	0.68548495	-8e-06	1.3692324e-08
4.900153623054363e-10	0.10798147	0.00012091658	0.6858047	0.68553156	-8e-06	1.3692051e-08
5.000270182404195e-10	0.10797923	0.00011339549	0.6858495	0.68557644	-8e-06	1.3691766e-08
5.100388317714911e-10	0.10797694	0.000104367165	0.685892	0.68561906	-8e-06	1.36914755e-08
5.20050735316794e-10	0.10797478	9.3878756e-05	0.6859318	0.685659	-8e-06	1.3691202e-08
5.300100462477524e-10	0.10797292	8.216541e-05	0.6859685	0.6856958	-8e-06	1.3690966e-08
5.400220982212998e-10	0.10797139	6.933794e-05	0.6860023	0.6857296	-8e-06	1.3690771e-08
5.500342316425658e-10	0.10797003	5.5698692e-05	0.68603235	0.6857598	-8e-06	1.36906e-08
5.60046398157794e-10	0.10796874	4.1429175e-05	0.6860587	0.68578625	-8e-06	1.36904355e-08
5.700058685156115e-10	0.107967526	2.6682574e-05	0.6860809	0.6858085	-8e-06	1.3690281e-08
5.800180182729691e-10	0.10796653	1.1364869e-05	0.68609923	0.6858267	-8e-06	1.36901575e-08
5.900301018232211e-10	0.10796586	-4.302064e-06	0.68611324	0.6858408	-8e-06	1.36900695e-08
6.000420512419617e-10	0.10796542	-2.0076799e-05	0.6861231	0.6858507	-8e-06	1.36900145e-08
6.100011833985916e-10	0.10796517	-3.5585792e-05	0.6861285	0.68585604	-8e-06	1.3689984e-08
6.200128247077135e-10	0.10796517	-5.082352e-05	0.68612975	0.6858573	-8e-06	1.3689984e-08
6.300242126332978e-10	0.10796542	-6.566715e-05	0.68612695	0.6858545	-8e-06	1.36900145e-08
6.400353697257962e-10	0.10796572	-8.006251e-05	0.6861201	0.68584764	-8e-06	1.3690054e-08
6.500462844146079e-10	0.10796609	-9.380104e-05	0.6861093	0.68583673	-8e-06	1.36901e-08
6.600043327379471e-10	0.10796671	-0.000106631516	0.6860949	0.68582237	-8e-06	1.369018e-08
6.700149455358597e-10	0.107967705	-0.000118616124	0.686077	0.6858044	-8e-06	1.3690305e-08
6.800254762278085e-10	0.10796893	-0.00012958288	0.686056	0.68578327	-8e-06	1.369046e-08
6.900360123955793e-10	0.107970186	-0.00013938687	0.68603206	0.6857593	-8e-06	1.3690622e-08
7.00046529988442e-10	0.10797146	-0.00014794989	0.6860056	0.6857326	-8e-06	1.3690781e-08
7.10004421220893e-10	0.10797276	-0.00015524685	0.68597686	0.68570393	-8e-06	1.3690947e-08
7.20015016667559e-10	0.10797426	-0.00016135447	0.6859462	0.6856731	-8e-06	1.3691137e-08
7.300256911105673e-10	0.10797593	-0.00016616096	0.6859139	0.6856408	-8e-06	1.3691349e-08
7.40036439566753e-10	0.10797772	-0.00016957152	0.6858805	0.6856073	-8e-06	1.3691574e-08
7.50047184733676e-10	0.107979506	-0.00017154605	0.6858462	0.685573	-8e-06	1.3691802e-08
7.600053529036521e-10	0.10798125	-0.00017213821	0.6858118	0.68553823	-8e-06	1.3692023e-08
7.700162722298227e-10	0.107982956	-0.00017146181	0.685777	0.6855035	-8e-06	1.36922385e-08
7.800272979058423e-10	0.10798464	-0.00016953792	0.68574256	0.685469	-8e-06	1.3692452e-08
7.900383350808507e-10	0.10798634	-0.00016636954	0.68570876	0.685435	-8e-06	1.3692668e-08
8.000494342791069e-10	0.10798804	-0.0001620023	0.6856758	0.68540204	-8e-06	1.3692883e-08
8.100078916868042e-10	0.107989706	-0.00015653396	0.68564445	0.68537056	-8e-06	1.3693095e-08
8.200190894377444e-10	0.10799128	-0.0001499881	0.68561447	0.68534046	-8e-06	1.36932945e-08
8.300302737775435e-10	0.107992716	-0.00014250762	0.6855863	0.68531233	-8e-06	1.3693476e-08
8.400414963353157e-10	0.10799399	-0.00013419532	0.68556035	0.6852862	-8e-06	1.3693638e-08
8.500000296125912e-10	0.107995145	-0.00012521113	0.68553674	0.6852626	-8e-06	1.3693786e-08
8.600112310693775e-10	0.10799621	-0.0001155761	0.68551564	0.68524146	-8e-06	1.3693919e-08
8.700224374683214e-10	0.10799715	-0.000105421626	0.68549716	0.6852229	-8e-06	1.3694041e-08
8.800335935636443e-10	0.10799798	-9.483243e-05	0.6854815	0.6852072	-8e-06	1.36941445e-08
8.900447073471391e-10	0.10799868	-8.394741e-05	0.6854686	0.6851944	-8e-06	1.3694232e-08
9.000031007494829e-10	0.10799919	-7.297062e-05	0.685459	0.68518466	-8e-06	1.3694297e-08
9.100141618047213e-10	0.107999526	-6.1919636e-05	0.6854522	0.6851779	-8e-06	1.369434e-08
9.20025171805794e-10	0.10799968	-5.0939845e-05	0.6854485	0.6851742	-8e-06	1.3694359e-08
9.300362305384522e-10	0.107999645	-4.0124018e-05	0.6854479	0.6851735	-8e-06	1.3694354e-08
9.400472793649767e-10	0.10799943	-2.9580951e-05	0.6854499	0.68517566	-8e-06	1.36943274e-08
9.500055576894544e-10	0.107999206	-1.947812e-05	0.68545485	0.68518054	-8e-06	1.3694299e-08
9.60016524427011e-10	0.10799896	-9.8556375e-06	0.68546253	0.68518835	-8e-06	1.3694267e-08
9.700274717578272e-10	0.10799851	-8.185454e-07	0.68547297	0.6851986	-8e-06	1.3694212e-08
9.800384750505831e-10	0.10799784	7.629896e-06	0.6854856	0.6852115	-8e-06	1.3694127e-08
9.9004944816217e-10	0.10799697	1.539818e-05	0.6855006	0.6852265	-8e-06	1.3694015e-08
1.000007724838246e-09	0.10799598	2.2305048e-05	0.6855176	0.6852435	-8e-06	1.36938905e-08
1.0100186580505365e-09	0.10799498	2.8347493e-05	0.6855364	0.6852624	-8e-06	1.3693764e-08
1.0200295906448056e-09	0.10799399	3.3470358e-05	0.6855569	0.6852829	-8e-06	1.369364e-08
1.0300405149350548e-09	0.107993	3.7687685e-05	0.6855786	0.68530464	-8e-06	1.3693512e-08
1.0400514965376182e-09	0.10799188	4.101627e-05	0.6856014	0.6853276	-8e-06	1.3693372e-08
1.050009817786948e-09	0.10799066	4.341324e-05	0.6856249	0.6853512	-8e-06	1.3693216e-08
1.0600207930647073e-09	0.10798934	4.4859797e-05	0.68564916	0.6853755	-8e-06	1.3693049e-08
1.0700317988839847e-09	0.107988045	4.530279e-05	0.6856738	0.6854001	-8e-06	1.3692884e-08
1.0800427940252295e-09	0.1079868	4.4766537e-05	0.68569833	0.6854248	-8e-06	1.3692726e-08
1.0900011194673933e-09	0.107985616	4.332349e-05	0.6857225	0.68544906	-8e-06	1.3692576e-08
1.1000121258642098e-09	0.10798446	4.1028554e-05	0.6857465	0.685473	-8e-06	1.3692429e-08
1.1100231558154602e-09	0.10798331	3.7940896e-05	0.6857696	0.6854964	-8e-06	1.3692284e-08
1.1200341547254642e-09	0.107982166	3.408107e-05	0.68579197	0.6855187	-8e-06	1.3692139e-08
1.1300451875469702e-09	0.10798104	2.9470642e-05	0.68581325	0.68553996	-8e-06	1.3691996e-08
1.1400035104066316e-09	0.107980035	2.4183315e-05	0.6858329	0.6855597	-8e-06	1.3691868e-08
1.1500145142911641e-09	0.107979126	1.8251181e-05	0.68585134	0.68557817	-8e-06	1.3691752e-08
1.1600255349916904e-09	0.10797833	1.1816135e-05	0.68586797	0.6855949	-8e-06	1.3691652e-08
1.1700365477312224e-09	0.10797764	4.976455e-06	0.685883	0.6856099	-8e-06	1.3691565e-08
1.1800475410023676e-09	0.10797696	-2.2006711e-06	0.68589604	0.685623	-8e-06	1.3691478e-08
1.1900058397770603e-09	0.10797633	-9.636022e-06	0.685907	0.685634	-8e-06	1.3691399e-08
1.2000168326105412e-09	0.10797585	-1.7339124e-05	0.68591595	0.68564296	-8e-06	1.3691337e-08
1.2100278508056513e-09	0.107975505	-2.5188134e-05	0.68592286	0.6856498	-8e-06	1.3691294e-08
1.2200388774802125e-09	0.107975334	-3.3066728e-05	0.68592745	0.68565446	-8e-06	1.3691273e-08
1.2300498741846736e-09	0.10797527	-4.085256e-05	0.68592995	0.68565696	-8e-06	1.3691264e-08
1.2400081894658625e-09	0.107975304	-4.8431313e-05	0.6859305	0.68565744	-8e-06	1.3691269e-08
1.2500191828765616e-09	0.10797541	-5.585513e-05	0.6859289	0.6856559	-8e-06	1.3691283e-08
1.2600301919672649e-09	0.10797554	-6.302122e-05	0.6859254	0.6856523	-8e-06	1.3691297e-08
1.2700412049593887e-09	0.10797569	-6.984988e-05	0.68591994	0.68564683	-8e-06	1.3691319e-08
1.2800522195698368e-09	0.107976004	-7.627339e-05	0.68591255	0.6856395	-8e-06	1.3691357e-08
1.2900105444388936e-09	0.10797651	-8.222257e-05	0.6859036	0.6856304	-8e-06	1.369142e-08
1.300021549738245e-09	0.10797714	-8.770093e-05	0.68589276	0.6856198	-8e-06	1.36914995e-08
1.3100325722023913e-09	0.1079778	-9.258112e-05	0.6858807	0.6856076	-8e-06	1.3691586e-08
1.3200435925426856e-09	0.10797848	-9.6823016e-05	0.6858673	0.68559414	-8e-06	1.3691671e-08
1.3300019199799841e-09	0.107979156	-0.00010041158	0.6858529	0.68557966	-8e-06	1.3691756e-08
1.3400129430707648e-09	0.10797989	-0.00010340046	0.6858374	0.68556416	-8e-06	1.3691849e-08
1.350023946843284e-09	0.1079807	-0.00010575305	0.68582124	0.68554795	-8e-06	1.36919525e-08
1.3600349193064576e-09	0.10798161	-0.00010742424	0.6858045	0.6855311	-8e-06	1.3692067e-08
1.37004587070304e-09	0.1079825	-0.00010839045	0.6857873	0.68551385	-8e-06	1.3692182e-08
1.3800041593622397e-09	0.107983395	-0.00010865068	0.68577003	0.6854965	-8e-06	1.3692294e-08
1.3900151755636637e-09	0.10798426	-0.00010823903	0.68575263	0.68547904	-8e-06	1.36924045e-08
1.4000261747141985e-09	0.10798509	-0.00010720713	0.6857353	0.68546176	-8e-06	1.3692509e-08
1.4100371488748484e-09	0.10798593	-0.00010557606	0.68571836	0.6854448	-8e-06	1.3692616e-08
1.4200481440822522e-09	0.10798677	-0.00010335834	0.6857021	0.6854283	-8e-06	1.36927225e-08
1.4300064578611767e-09	0.10798759	-0.0001005966	0.68568635	0.6854126	-8e-06	1.3692826e-08
1.440017410252784e-09	0.10798837	-9.729283e-05	0.6856714	0.6853976	-8e-06	1.3692926e-08
1.450028409567519e-09	0.10798908	-9.351022e-05	0.6856573	0.68538356	-8e-06	1.3693016e-08
1.4600394302748421e-09	0.107989736	-8.930593e-05	0.6856444	0.68537056	-8e-06	1.3693099e-08
1.470050436265756e-09	0.10799031	-8.474464e-05	0.68563265	0.68535876	-8e-06	1.3693171e-08
1.4800087583839498e-09	0.10799085	-7.99141e-05	0.68562216	0.6853482	-8e-06	1.369324e-08
1.4900197698704244e-09	0.10799134	-7.48168e-05	0.685613	0.68533903	-8e-06	1.3693302e-08
1.5000307483619875e-09	0.10799174	-6.951143e-05	0.6856053	0.6853314	-8e-06	1.3693352e-08
1.5100417254513704e-09	0.10799205	-6.403707e-05	0.68559897	0.6853251	-8e-06	1.3693392e-08
1.5200000071858842e-09	0.10799228	-5.852211e-05	0.6855944	0.6853204	-8e-06	1.369342e-08
1.5300109754419343e-09	0.10799241	-5.298107e-05	0.6855911	0.6853172	-8e-06	1.36934375e-08
1.540021958081982e-09	0.10799248	-4.749619e-05	0.6855894	0.68531543	-8e-06	1.36934455e-08
1.5500329467420383e-09	0.10799245	-4.210357e-05	0.68558913	0.6853152	-8e-06	1.3693443e-08
1.5600439249537638e-09	0.10799237	-3.684808e-05	0.68559027	0.6853164	-8e-06	1.3693433e-08
1.5700022303815484e-09	0.10799228	-3.181321e-05	0.68559283	0.6853189	-8e-06	1.3693421e-08
1.580013212960664e-09	0.10799211	-2.6997708e-05	0.6855967	0.68532276	-8e-06	1.36934e-08
1.5900242545692931e-09	0.107991904	-2.2475526e-05	0.6856019	0.68532807	-8e-06	1.3693373e-08
1.6000352680088443e-09	0.10799158	-1.8273242e-05	0.6856084	0.6853345	-8e-06	1.3693332e-08
1.610046277627751e-09	0.10799114	-1.442094e-05	0.68561596	0.68534213	-8e-06	1.3693278e-08
1.6200045758534378e-09	0.10799065	-1.0984804e-05	0.68562454	0.68535066	-8e-06	1.3693215e-08
1.630015586943135e-09	0.107990175	-7.97737e-06	0.68563396	0.6853602	-8e-06	1.3693154e-08
1.6400266272010157e-09	0.10798967	-5.4327347e-06	0.6856443	0.68537045	-8e-06	1.369309e-08
1.6500376253120383e-09	0.10798915	-3.3418714e-06	0.6856551	0.6853815	-8e-06	1.3693023e-08
1.6600485625866005e-09	0.10798857	-1.7057833e-06	0.6856666	0.685393	-8e-06	1.3692952e-08
1.6700068767151554e-09	0.107987955	-5.490396e-07	0.6856785	0.6854049	-8e-06	1.36928735e-08
1.6800178638571272e-09	0.10798732	1.2986416e-07	0.68569064	0.6854171	-8e-06	1.3692793e-08
1.690028847904904e-09	0.10798667	3.1889425e-07	0.6857031	0.68542945	-8e-06	1.369271e-08
1.700039845948839e-09	0.10798605	2.7577332e-08	0.6857153	0.6854418	-8e-06	1.3692631e-08
1.7100508434129635e-09	0.10798544	-7.2302754e-07	0.68572754	0.6854541	-8e-06	1.3692554e-08
1.720009146717334e-09	0.107984856	-1.905343e-06	0.6857395	0.68546605	-8e-06	1.3692479e-08
1.7300201620955933e-09	0.10798427	-3.5038256e-06	0.6857511	0.6854777	-8e-06	1.3692405e-08
1.7400311226082852e-09	0.10798369	-5.4743514e-06	0.6857622	0.6854888	-8e-06	1.3692332e-08
1.7500421155392334e-09	0.10798315	-7.812408e-06	0.6857728	0.6854994	-8e-06	1.3692264e-08
1.760000418695097e-09	0.10798266	-1.0480389e-05	0.6857826	0.6855093	-8e-06	1.3692199e-08
1.7700114137513795e-09	0.107982196	-1.3468268e-05	0.6857918	0.6855184	-8e-06	1.36921425e-08
1.7800224444741982e-09	0.107981786	-1.6705846e-05	0.6858001	0.6855267	-8e-06	1.3692092e-08
1.7900334637834046e-09	0.10798141	-2.0154517e-05	0.68580747	0.6855342	-8e-06	1.3692044e-08
1.8000444302952752e-09	0.10798109	-2.3774168e-05	0.6858138	0.68554056	-8e-06	1.3692002e-08
1.8100027346882284e-09	0.107980825	-2.750463e-05	0.68581927	0.685546	-8e-06	1.36919684e-08
1.8200137266983322e-09	0.10798059	-3.136295e-05	0.6858236	0.68555033	-8e-06	1.3691939e-08
1.8300247319389825e-09	0.10798043	-3.5276924e-05	0.68582684	0.68555367	-8e-06	1.3691919e-08
1.8400357281884172e-09	0.107980356	-3.9206443e-05	0.6858292	0.68555593	-8e-06	1.3691909e-08
1.8500467460119354e-09	0.10798031	-4.3100863e-05	0.6858303	0.6855571	-8e-06	1.36919045e-08
1.8600050487550507e-09	0.10798034	-4.6898014e-05	0.6858305	0.6855573	-8e-06	1.3691905e-08
1.8700160532338507e-09	0.10798037	-5.06024e-05	0.68582964	0.6855564	-8e-06	1.3691911e-08
1.880027061190679e-09	0.10798043	-5.4171407e-05	0.6858279	0.68555456	-8e-06	1.3691919e-08
1.890038041613129e-09	0.107980564	-5.757395e-05	0.68582505	0.68555176	-8e-06	1.3691936e-08
1.9000490327470808e-09	0.10798073	-6.077643e-05	0.6858214	0.68554807	-8e-06	1.3691957e-08
1.91000732713827e-09	0.107980944	-6.3734224e-05	0.6858169	0.68554354	-8e-06	1.3691984e-08
1.920018345848763e-09	0.10798123	-6.6443325e-05	0.6858116	0.6855382	-8e-06	1.3692019e-08
1.9300293423868426e-09	0.107981555	-6.886712e-05	0.6858055	0.68553215	-8e-06	1.3692062e-08
1.9400403576188574e-09	0.1079819	-7.0995084e-05	0.68579876	0.6855254	-8e-06	1.3692105e-08
1.9500513412387407e-09	0.10798228	-7.280516e-05	0.68579155	0.6855181	-8e-06	1.3692153e-08
1.9600096514183038e-09	0.10798265	-7.427729e-05	0.6857838	0.68551046	-8e-06	1.3692199e-08
1.9700206345002963e-09	0.10798304	-7.542551e-05	0.6857757	0.68550223	-8e-06	1.3692251e-08
1.980031653846902e-09	0.10798346	-7.623177e-05	0.6857673	0.6854939	-8e-06	1.3692303e-08
1.9900426809901644e-09	0.10798391	-7.67061e-05	0.6857587	0.68548524	-8e-06	1.3692359e-08
2.0000009630347018e-09	0.107984364	-7.684499e-05	0.68575007	0.68547654	-8e-06	1.3692417e-08
2.0100119431771587e-09	0.10798481	-7.664493e-05	0.6857414	0.68546784	-8e-06	1.3692476e-08
2.0200229342993732e-09	0.10798526	-7.611895e-05	0.6857327	0.68545914	-8e-06	1.3692529e-08
2.0300339071055157e-09	0.10798568	-7.52801e-05	0.68572426	0.68545073	-8e-06	1.3692584e-08
2.0400449228037067e-09	0.10798606	-7.4150936e-05	0.68571603	0.68544245	-8e-06	1.3692633e-08
2.050003220281801e-09	0.10798647	-7.275552e-05	0.6857082	0.68543464	-8e-06	1.3692685e-08
2.0600142422327868e-09	0.10798687	-7.110439e-05	0.6857008	0.6854272	-8e-06	1.3692735e-08
2.0700252430106173e-09	0.10798724	-6.92166e-05	0.6856938	0.68542016	-8e-06	1.3692782e-08
2.0800362489974214e-09	0.10798757	-6.710869e-05	0.68568736	0.68541366	-8e-06	1.3692823e-08
2.090047246397613e-09	0.10798784	-6.482228e-05	0.6856815	0.6854078	-8e-06	1.3692859e-08
2.1000055147596706e-09	0.1079881	-6.23882e-05	0.6856763	0.6854027	-8e-06	1.369289e-08
2.1100165194191773e-09	0.10798831	-5.9825263e-05	0.68567175	0.6853981	-8e-06	1.3692918e-08
2.120027506182055e-09	0.107988484	-5.7183857e-05	0.685668	0.6853942	-8e-06	1.369294e-08
2.1300384932043355e-09	0.10798868	-5.4465734e-05	0.68566483	0.6853911	-8e-06	1.3692964e-08
2.140049479865384e-09	0.10798883	-5.1708e-05	0.68566245	0.6853888	-8e-06	1.3692982e-08
2.150007787268301e-09	0.10798888	-4.8950267e-05	0.68566096	0.68538725	-8e-06	1.369299e-08
2.1600187560446597e-09	0.10798889	-4.6189525e-05	0.68566006	0.6853863	-8e-06	1.3692991e-08
2.1700297765877373e-09	0.10798888	-4.3485943e-05	0.68565995	0.6853862	-8e-06	1.3692989e-08
2.1800407816175298e-09	0.10798884	-4.0872616e-05	0.6856605	0.6853868	-8e-06	1.3692986e-08
2.190051758838257e-09	0.10798882	-3.8366088e-05	0.68566173	0.6853881	-8e-06	1.3692982e-08
2.2000100549700727e-09	0.107988715	-3.59809e-05	0.6856637	0.68539	-8e-06	1.3692971e-08
2.210021084245309e-09	0.1079886	-3.3704015e-05	0.6856663	0.6853926	-8e-06	1.36929525e-08
2.2200320755313036e-09	0.10798843	-3.1589585e-05	0.6856695	0.6853957	-8e-06	1.3692933e-08
2.230043096530832e-09	0.10798822	-2.9661176e-05	0.6856731	0.6853995	-8e-06	1.3692908e-08
2.240001366355718e-09	0.10798802	-2.7954891e-05	0.6856773	0.68540376	-8e-06	1.36928815e-08
2.2500123768643812e-09	0.10798779	-2.645669e-05	0.68568206	0.6854084	-8e-06	1.369285e-08
2.2600233540694623e-09	0.10798754	-2.5169582e-05	0.6856871	0.68541354	-8e-06	1.369282e-08
2.2700343541799935e-09	0.10798725	-2.4094566e-05	0.6856926	0.68541896	-8e-06	1.3692783e-08
2.2800453155527172e-09	0.10798695	-2.3256716e-05	0.6856983	0.6854247	-8e-06	1.3692745e-08
2.2900036398654477e-09	0.10798665	-2.2664557e-05	0.6857042	0.6854305	-8e-06	1.36927065e-08
2.3000146510014875e-09	0.10798634	-2.2328615e-05	0.6857102	0.68543667	-8e-06	1.3692668e-08
2.3100256536868085e-09	0.10798603	-2.2230339e-05	0.68571633	0.68544275	-8e-06	1.369263e-08
2.3200366607792416e-09	0.107985735	-2.2353182e-05	0.68572253	0.68544894	-8e-06	1.3692592e-08
2.3300476705166094e-09	0.10798544	-2.269815e-05	0.68572855	0.685455	-8e-06	1.3692554e-08
2.3400059637341177e-09	0.10798512	-2.3263738e-05	0.68573445	0.685461	-8e-06	1.3692513e-08
2.3500169277573416e-09	0.1079848	-2.4042922e-05	0.68574023	0.6854668	-8e-06	1.3692475e-08
2.3600279508030992e-09	0.10798454	-2.5027683e-05	0.6857458	0.68547237	-8e-06	1.369244e-08
2.3700389593593173e-09	0.10798427	-2.6190444e-05	0.68575114	0.6854777	-8e-06	1.3692405e-08
2.380049938935637e-09	0.10798404	-2.7514156e-05	0.685756	0.6854826	-8e-06	1.3692376e-08
2.3900082313193348e-09	0.107983805	-2.8978762e-05	0.6857607	0.6854872	-8e-06	1.3692345e-08
2.400019232979352e-09	0.10798359	-3.0565712e-05	0.6857648	0.6854913	-8e-06	1.3692318e-08
2.410030223283945e-09	0.1079834	-3.2273e-05	0.6857685	0.6854951	-8e-06	1.3692295e-08
2.4200412099425172e-09	0.10798324	-3.408032e-05	0.68577176	0.6854983	-8e-06	1.3692276e-08
2.430052205679486e-09	0.10798311	-3.5954825e-05	0.6857744	0.68550104	-8e-06	1.369226e-08
2.4400105130793326e-09	0.107983	-3.7863178e-05	0.68577665	0.6855033	-8e-06	1.3692245e-08
2.4500214871205475e-09	0.107982926	-3.9801613e-05	0.6857784	0.685505	-8e-06	1.3692235e-08
2.4600325189129816e-09	0.10798286	-4.1753086e-05	0.6857796	0.68550617	-8e-06	1.3692227e-08
2.4700435514109366e-09	0.10798284	-4.3689513e-05	0.6857803	0.6855069	-8e-06	1.3692223e-08
2.4800018613110814e-09	0.10798283	-4.558884e-05	0.6857804	0.685507	-8e-06	1.36922225e-08
2.4900128367976757e-09	0.10798285	-4.7458085e-05	0.68578005	0.68550664	-8e-06	1.3692225e-08
2.5000238036982255e-09	0.1079829	-4.925111e-05	0.6857792	0.6855058	-8e-06	1.3692232e-08
2.5100348042691e-09	0.10798296	-5.095539e-05	0.68577784	0.6855045	-8e-06	1.3692239e-08
2.520045833325573e-09	0.10798303	-5.2558888e-05	0.6857761	0.6855027	-8e-06	1.3692248e-08
2.5300041409887658e-09	0.10798315	-5.4046057e-05	0.68577397	0.68550056	-8e-06	1.3692262e-08
2.5400151251979987e-09	0.10798328	-5.542392e-05	0.68577147	0.685498	-8e-06	1.3692281e-08
2.5500260781671605e-09	0.10798343	-5.666189e-05	0.6857685	0.6854951	-8e-06	1.36923e-08
2.5600370815994335e-09	0.1079836	-5.775195e-05	0.6857652	0.68549174	-8e-06	1.369232e-08
2.570048076896068e-09	0.107983775	-5.867654e-05	0.68576175	0.6854882	-8e-06	1.3692343e-08
2.580006389863494e-09	0.107983954	-5.9440183e-05	0.6857579	0.68548447	-8e-06	1.36923655e-08
2.5900173882031675e-09	0.10798415	-6.00524e-05	0.6857539	0.6854805	-8e-06	1.3692389e-08
2.60002840273077e-09	0.10798437	-6.0485614e-05	0.6857498	0.6854763	-8e-06	1.3692419e-08
2.6100393848213963e-09	0.1079846	-6.07654e-05	0.6857456	0.6854721	-8e-06	1.3692448e-08
2.620050402222884e-09	0.10798481	-6.0870192e-05	0.6857413	0.6854677	-8e-06	1.3692476e-08
2.630008750954924e-09	0.107985035	-6.0796487e-05	0.68573695	0.6854634	-8e-06	1.3692503e-08
2.640019766214219e-09	0.10798524	-6.0568098e-05	0.68573266	0.6854591	-8e-06	1.3692529e-08
2.6500307407460265e-09	0.10798548	-6.0193797e-05	0.6857285	0.6854549	-8e-06	1.3692558e-08
2.6600417204745995e-09	0.10798565	-5.9665817e-05	0.6857244	0.6854508	-8e-06	1.3692581e-08
2.6700000234990432e-09	0.107985854	-5.9002457e-05	0.68572044	0.6854468	-8e-06	1.3692607e-08
2.680010978794857e-09	0.10798605	-5.8205722e-05	0.6857167	0.6854431	-8e-06	1.3692631e-08
2.690021946673667e-09	0.10798624	-5.7291658e-05	0.6857132	0.6854395	-8e-06	1.3692655e-08
2.700032976148043e-09	0.10798641	-5.626578e-05	0.6857099	0.6854363	-8e-06	1.3692677e-08
2.710043967671209e-09	0.10798655	-5.5147648e-05	0.6857069	0.6854333	-8e-06	1.3692693e-08
2.720002295694205e-09	0.10798666	-5.395881e-05	0.6857043	0.68543065	-8e-06	1.3692708e-08
2.7300132965818477e-09	0.10798678	-5.2700783e-05	0.6857019	0.6854284	-8e-06	1.3692723e-08
2.7400243187517894e-09	0.10798688	-5.1398132e-05	0.6857	0.68542635	-8e-06	1.3692737e-08
2.750035328297606e-09	0.10798698	-5.0054365e-05	0.6856983	0.6854247	-8e-06	1.3692749e-08
2.760046287558799e-09	0.107987046	-4.868653e-05	0.6856971	0.68542343	-8e-06	1.3692757e-08
2.7700045735422083e-09	0.107987076	-4.7312675e-05	0.68569624	0.68542254	-8e-06	1.3692762e-08
2.7800155426188704e-09	0.10798709	-4.594133e-05	0.6856956	0.68542194	-8e-06	1.3692764e-08
2.790026540838559e-09	0.1079871	-4.459656e-05	0.6856954	0.6854218	-8e-06	1.3692765e-08
2.8000375374059455e-09	0.1079871	-4.328538e-05	0.68569565	0.685422	-8e-06	1.3692764e-08
2.810048585544028e-09	0.10798707	-4.2013315e-05	0.68569607	0.68542254	-8e-06	1.3692759e-08
2.820006887866836e-09	0.10798703	-4.080342e-05	0.685697	0.6854234	-8e-06	1.3692755e-08
2.8300178620299208e-09	0.107986964	-3.96542e-05	0.68569815	0.68542457	-8e-06	1.3692748e-08
2.8400288496664773e-09	0.1079869	-3.85842e-05	0.68569964	0.685426	-8e-06	1.36927385e-08
2.8500398462462223e-09	0.10798681	-3.760094e-05	0.68570143	0.6854278	-8e-06	1.3692729e-08
2.860050860222281e-09	0.107986696	-3.6710946e-05	0.6857034	0.6854298	-8e-06	1.3692714e-08
2.870009165773006e-09	0.10798658	-3.5926747e-05	0.68570566	0.685432	-8e-06	1.36926985e-08
2.8800201709890523e-09	0.10798646	-3.5248846e-05	0.6857081	0.6854345	-8e-06	1.3692682e-08
2.890031143767478e-09	0.10798633	-3.4681754e-05	0.6857107	0.68543714	-8e-06	1.36926674e-08
2.9000421428626015e-09	0.107986204	-3.4225977e-05	0.68571347	0.6854399	-8e-06	1.36926515e-08
2.9100004504674317e-09	0.10798605	-3.388903e-05	0.68571633	0.68544275	-8e-06	1.3692632e-08
2.9200114590833156e-09	0.10798591	-3.3672426e-05	0.68571925	0.6854457	-8e-06	1.36926115e-08
2.930022430031315e-09	0.107985735	-3.357465e-05	0.6857223	0.68544877	-8e-06	1.3692592e-08
2.9400334446110003e-09	0.10798559	-3.3598717e-05	0.68572533	0.6854518	-8e-06	1.3692573e-08
2.9500444534965314e-09	0.10798544	-3.373109e-05	0.6857284	0.68545485	-8e-06	1.3692554e-08
2.960002770347893e-09	0.107985295	-3.397026e-05	0.6857313	0.6854577	-8e-06	1.3692535e-08
2.9700137398135914e-09	0.107985154	-3.4314726e-05	0.68573415	0.6854607	-8e-06	1.3692517e-08
2.980024793766868e-09	0.107985	-3.4766494e-05	0.68573695	0.6854635	-8e-06	1.3692498e-08
2.9900357993817446e-09	0.10798486	-3.5302997e-05	0.6857397	0.6854662	-8e-06	1.369248e-08
3e-09	0.107984744	-3.5919726e-05	0.68574214	0.6854687	-8e-06	1.3692465e-08
3.010003666247287e-09	0.13756147	0.016259972	0.67815936	0.67774063	-8e-06	1.7442794e-08
3.020014807497287e-09	0.13628557	0.0530287	0.6702263	0.66968024	-8e-06	1.728101e-08
3.030026372066685e-09	0.10943846	0.07643089	0.66353726	0.663006	-8e-06	1.38767975e-08
3.0400375540010034e-09	0.08052251	0.067299835	0.6577536	0.65724874	-8e-06	1.0210254e-08
3.05e-09	0.071717955	0.036829874	0.652199	0.6517893	-8e-06	9.093837e-09
3.060024522668784e-09	0.087732226	0.012226287	0.64617187	0.6458215	-8e-06	1.1124448e-08
3.0700358440444057e-09	0.113909975	0.012847866	0.63885635	0.6384715	-8e-06	1.4443785e-08
3.080047252330731e-09	0.12896241	0.034603857	0.6304322	0.63004345	-8e-06	1.6352434e-08
3.090005842329433e-09	0.12212694	0.05630715	0.62224233	0.6218454	-8e-06	1.5485696e-08
3.1e-09	0.10057806	0.060180552	0.61477005	0.6144054	-8e-06	1.2753298e-08
3.1100165986987313e-09	0.08236753	0.04475754	0.6077934	0.60751677	-8e-06	1.0444203e-08
3.1200274225047282e-09	0.081820756	0.024779888	0.60094815	0.6007261	-8e-06	1.03748725e-08
3.130037910627666e-09	0.09795172	0.016196975	0.593448	0.59329426	-8e-06	1.2420279e-08
3.1400481207521016e-09	0.11629759	0.023930613	0.5848094	0.58466035	-8e-06	1.4746533e-08
3.15e-09	0.12184087	0.03898958	0.5755977	0.5754415	-8e-06	1.5449423e-08
3.1600149490624247e-09	0.11076203	0.04769432	0.56655115	0.566421	-8e-06	1.4044626e-08
3.1700258503055307e-09	0.09300295	0.0432535	0.5579495	0.5578612	-8e-06	1.1792776e-08
3.1800365097531057e-09	0.08335315	0.030140255	0.549511	0.5494819	-8e-06	1.0569179e-08
3.190046809445192e-09	0.08865916	0.018911112	0.54077077	0.5407937	-8e-06	1.124198e-08
3.2e-09	0.10267998	0.016996505	0.53116655	0.5312152	-8e-06	1.3019821e-08
3.2100140269825722e-09	0.11260705	0.023464223	0.5204558	0.52048796	-8e-06	1.4278574e-08
3.220024888815477e-09	0.10987129	0.031222587	0.50930405	0.50927585	-8e-06	1.3931679e-08
3.2300357053839503e-09	0.09709427	0.033111077	0.49830598	0.49821922	-8e-06	1.2311553e-08
3.2400464917270262e-09	0.084910914	0.02740914	0.48758727	0.48745936	-8e-06	1.0766704e-08
3.25e-09	0.08260157	0.018669493	0.47694728	0.47677848	-8e-06	1.0473879e-08
3.260013807904094e-09	0.090713084	0.013500724	0.46580115	0.46557048	-8e-06	1.1502421e-08
3.2700244471515014e-09	0.10149151	0.015392498	0.45402396	0.45370442	-8e-06	1.2869123e-08
3.2800352308472615e-09	0.10590179	0.021894768	0.44197068	0.44156525	-8e-06	1.3428348e-08
3.2900459590774922e-09	0.1010993	0.027297912	0.43019044	0.42973548	-8e-06	1.2819391e-08
3.3e-09	0.092168316	0.027621808	0.4189908	0.41853312	-8e-06	1.1686943e-08
3.3100140793267145e-09	0.086957626	0.023434758	0.40810913	0.40768647	-8e-06	1.1026227e-08
3.3200249011282303e-09	0.08969124	0.018666524	0.3972502	0.39687616	-8e-06	1.1372848e-08
3.3300358419475023e-09	0.09766574	0.017199017	0.3860219	0.38569137	-8e-06	1.2384016e-08
3.3400468517635008e-09	0.103950925	0.019770194	0.37434253	0.3740453	-8e-06	1.3180978e-08
3.3500000000000002e-09	0.103326105	0.02355716	0.3625454	0.36228064	-8e-06	1.3101747e-08