# t (s)	mx ()	my ()	mz ()	m_z_yrange7_ ()	I_x (A)
0	0.08394306	3.8444996e-05	-0.6549934	-0.65583736	-8e-06
1.0050518241354398e-11	0.083947815	0.00011483833	-0.65498066	-0.6558248	-8e-06
2.003967935888639e-11	0.08395672	0.00018703818	-0.6549479	-0.6557919	-8e-06
3.000988517474946e-11	0.083961874	0.0002553667	-0.6548954	-0.6557394	-8e-06
4.002825083462155e-11	0.08395933	0.00032152046	-0.6548235	-0.6556673	-8e-06
5e-11	0.08395292	0.0003873847	-0.6547329	-0.6555766	-8e-06
6.002569598543479e-11	0.08394911	0.0004549281	-0.6546231	-0.65546674	-8e-06
7.004356245190836e-11	0.083951525	0.0005230782	-0.6544951	-0.65533864	-8e-06
8.00038575181606e-11	0.08395802	0.00058907806	-0.65434986	-0.65519327	-8e-06
9.002098542541402e-11	0.08396359	0.0006518642	-0.6541862	-0.6550295	-8e-06
1e-10	0.08396471	0.00071124954	-0.65400577	-0.65484893	-8e-06
1.1005001284909003e-10	0.083962284	0.0007701318	-0.653807	-0.6546499	-8e-06
1.2001237540639605e-10	0.08396013	0.0008297562	-0.65359324	-0.65443593	-8e-06
1.3002848137118384e-10	0.08396125	0.00089107594	-0.6533616	-0.6542041	-8e-06
1.4004459933021866e-10	0.08396568	0.0009520796	-0.65311354	-0.6539558	-8e-06
1.5e-10	0.08397079	0.0010102969	-0.6528509	-0.653693	-8e-06
1.600206908759717e-10	0.08397403	0.0010661059	-0.6525707	-0.65341246	-8e-06
1.7003633171269263e-10	0.08397485	0.0011205502	-0.65227467	-0.6531163	-8e-06
1.8005208275767623e-10	0.08397471	0.0011755475	-0.6519632	-0.6528044	-8e-06
1.9001498346395887e-10	0.08397567	0.0012316308	-0.6516378	-0.6524788	-8e-06
2e-10	0.08397871	0.001288351	-0.6512965	-0.6521371	-8e-06
2.1001559681272153e-10	0.08398311	0.0013441228	-0.65093887	-0.6517792	-8e-06
2.2003134902888345e-10	0.08398725	0.0013979974	-0.65056604	-0.6514061	-8e-06
2.300469946322288e-10	0.083990075	0.0014505866	-0.6501782	-0.6510179	-8e-06
2.4000989188592486e-10	0.08399173	0.0015029267	-0.64977765	-0.65061694	-8e-06
2.5e-10	0.083993256	0.0015563737	-0.6493612	-0.65020007	-8e-06
2.6001984069083965e-10	0.083995745	0.0016108166	-0.6489285	-0.64976704	-8e-06
2.7003551767030705e-10	0.0839994	0.0016651398	-0.64848125	-0.64931935	-8e-06
2.800510935468932e-10	0.0840036	0.0017185843	-0.64801913	-0.6488569	-8e-06
2.9001376067279083e-10	0.08400735	0.0017708604	-0.64754486	-0.6483821	-8e-06
3e-10	0.084010236	0.0018230542	-0.64705473	-0.64789164	-8e-06
3.1001580795463115e-10	0.08401253	0.0018759578	-0.64654845	-0.6473848	-8e-06
3.20027765854144e-10	0.08401497	0.0019296757	-0.6460275	-0.64686334	-8e-06
3.300397608797842e-10	0.08401813	0.0019838777	-0.6454917	-0.64632714	-8e-06
3.400516193507157e-10	0.08402193	0.002038	-0.64494103	-0.645776	-8e-06
3.5e-10	0.0840258	0.0020914157	-0.6443791	-0.6452135	-8e-06
3.6001668427864824e-10	0.084029235	0.0021450443	-0.64379835	-0.6446322	-8e-06
3.700275550294413e-10	0.08403208	0.0021989415	-0.64320284	-0.6440362	-8e-06
3.800380100427059e-10	0.08403472	0.00225348	-0.6425924	-0.6434251	-8e-06
3.9004820043554327e-10	0.084037565	0.002308652	-0.6419666	-0.6427988	-8e-06
4.0005310275878914e-10	0.0840408	0.002364157	-0.6413259	-0.64215755	-8e-06
4.100139352975768e-10	0.08404426	0.0024195106	-0.64067286	-0.64150393	-8e-06
4.2002395863162554e-10	0.084047645	0.0024751571	-0.64000124	-0.64083165	-8e-06
4.300340285496785e-10	0.0840507	0.0025309527	-0.63931406	-0.6401438	-8e-06
4.4004422120908033e-10	0.084053434	0.0025870935	-0.6386113	-0.6394404	-8e-06
4.5005282200712347e-10	0.08405604	0.0026436949	-0.63789296	-0.63872147	-8e-06
4.600119023143292e-10	0.084058695	0.0027004587	-0.6371627	-0.6379905	-8e-06
4.700222981965727e-10	0.08406155	0.002757808	-0.6364127	-0.6372398	-8e-06
4.800327728754087e-10	0.08406449	0.0028152645	-0.635647	-0.6364734	-8e-06
4.900432944397431e-10	0.08406737	0.002872702	-0.63486534	-0.63569105	-8e-06
5.00052777545017e-10	0.08407001	0.0029301136	-0.6340679	-0.6348928	-8e-06
5.10011625007499e-10	0.084072374	0.0029873112	-0.6332586	-0.6340828	-8e-06
5.200220982765418e-10	0.084074564	0.0030449785	-0.6324291	-0.6332526	-8e-06
5.300325321217972e-10	0.08407678	0.003102783	-0.63158387	-0.63240653	-8e-06
5.40042930676704e-10	0.08407915	0.0031605398	-0.6307226	-0.6315445	-8e-06
5.500527308396836e-10	0.08408162	0.0032179863	-0.6298455	-0.6306666	-8e-06
5.600108359575865e-10	0.08408401	0.0032746596	-0.6289572	-0.62977755	-8e-06
5.700210581261402e-10	0.084086165	0.00333114	-0.6280487	-0.6288682	-8e-06
5.800312266216185e-10	0.084088065	0.0033872216	-0.6271246	-0.6279432	-8e-06
5.900413801746904e-10	0.08408987	0.003442942	-0.626185	-0.62700284	-8e-06
6e-10	0.084091775	0.0034978748	-0.6252352	-0.62605214	-8e-06
6.100433512100482e-10	0.08409388	0.003552483	-0.62426215	-0.6250783	-8e-06
6.200006769433431e-10	0.08409609	0.0036055709	-0.6232828	-0.624098	-8e-06
6.300107026569295e-10	0.08409819	0.003657755	-0.62228376	-0.6230981	-8e-06
6.400206723753338e-10	0.08410008	0.003708772	-0.6212704	-0.62208396	-8e-06
6.5e-10	0.08410185	0.0037585131	-0.62024635	-0.62105906	-8e-06
6.600098111838471e-10	0.08410371	0.0038071994	-0.6192058	-0.6200175	-8e-06
6.700197730815197e-10	0.084105805	0.0038544412	-0.6181521	-0.61896294	-8e-06
6.800297629124185e-10	0.08410812	0.0038999403	-0.6170857	-0.6178956	-8e-06
6.900397538077956e-10	0.08411052	0.0039434894	-0.6160072	-0.6168162	-8e-06
7.000000000000001e-10	0.08411284	0.003984827	-0.6149224	-0.6157306	-8e-06
7.100038799713474e-10	0.08411513	0.004024362	-0.6138219	-0.61462915	-8e-06
7.200139073165406e-10	0.084117524	0.0040619	-0.61271024	-0.6135165	-8e-06
7.300239281358136e-10	0.084120154	0.004097255	-0.61158866	-0.61239403	-8e-06
7.400339698605164e-10	0.08412311	0.004130177	-0.61045784	-0.6112623	-8e-06
7.500000000000001e-10	0.084126316	0.0041603134	-0.6093237	-0.6101271	-8e-06
7.60018677498384e-10	0.08412966	0.0041878563	-0.6081756	-0.60897815	-8e-06
7.70028739095269e-10	0.08413307	0.004212621	-0.6070215	-0.60782313	-8e-06
7.800387650775675e-10	0.08413663	0.0042346525	-0.6058612	-0.6066618	-8e-06
7.900488289445475e-10	0.084140465	0.0042538857	-0.60469526	-0.605495	-8e-06
8.000000000000001e-10	0.08414466	0.0042700893	-0.6035318	-0.6043304	-8e-06
8.1001425242832e-10	0.08414923	0.004283297	-0.6023571	-0.6031547	-8e-06
8.200242861335921e-10	0.08415406	0.0042933226	-0.6011798	-0.6019764	-8e-06
8.300343266988866e-10	0.0841591	0.004300211	-0.60000044	-0.60079604	-8e-06
8.400444059451881e-10	0.08416433	0.004304045	-0.59881973	-0.5996144	-8e-06
8.500000000000002e-10	0.084169775	0.0043048793	-0.59764516	-0.5984387	-8e-06
8.600116442370772e-10	0.0841756	0.0043027145	-0.59646446	-0.5972569	-8e-06
8.700216833945635e-10	0.0841818	0.0042975196	-0.5952851	-0.5960765	-8e-06
8.80031710353108e-10	0.08418831	0.0042893146	-0.5941079	-0.59489816	-8e-06
8.900417684829916e-10	0.08419503	0.004278215	-0.5929336	-0.59372276	-8e-06
9.000000000000002e-10	0.08420188	0.004264451	-0.59176904	-0.5925571	-8e-06
9.100195037422312e-10	0.084208906	0.004248031	-0.5906017	-0.5913886	-8e-06
9.200295693933753e-10	0.08421617	0.004229184	-0.5894406	-0.59022623	-8e-06
9.30039609215988e-10	0.084223695	0.004208024	-0.5882852	-0.5890697	-8e-06
9.40049671604302e-10	0.084231414	0.0041846796	-0.5871362	-0.5879196	-8e-06
9.500000000000002e-10	0.0842392	0.004159474	-0.586001	-0.5867831	-8e-06
9.600146384195807e-10	0.08424707	0.0041322988	-0.5848659	-0.58564675	-8e-06
9.700247400543552e-10	0.08425495	0.004103543	-0.5837392	-0.5845189	-8e-06
9.80034849290186e-10	0.084262885	0.004073418	-0.582621	-0.58339936	-8e-06
9.900449862479955e-10	0.08427086	0.004042115	-0.5815113	-0.58228844	-8e-06
1.0000000000000003e-09	0.08427882	0.0040099933	-0.58041674	-0.5811927	-8e-06
1.0100122871941456e-09	0.08708972	0.0032908516	-0.578875	-0.579646	-8e-06
1.0200224794327063e-09	0.08823195	0.00040629407	-0.57731485	-0.578083	-8e-06
1.0300326986010008e-09	0.08695025	-0.0018042601	-0.5757486	-0.57651675	-8e-06
1.040042914217899e-09	0.08447064	-0.0014832708	-0.5741648	-0.5749335	-8e-06
1.0500000000000003e-09	0.08281899	0.00081745995	-0.5725519	-0.573319	-8e-06
1.0600107823625702e-09	0.08323157	0.0029729498	-0.57089144	-0.5716549	-8e-06
1.0700210722541956e-09	0.08526136	0.003337332	-0.56919956	-0.56995934	-8e-06
1.0800314000713316e-09	0.08715343	0.0019925272	-0.5674832	-0.5682408	-8e-06
1.0900417498190582e-09	0.08737169	0.00035256337	-0.5657484	-0.56650466	-8e-06
1.1000000000000003e-09	0.08586218	-0.00018370291	-0.56400084	-0.56475574	-8e-06
1.1100392025386346e-09	0.083957896	0.0006871367	-0.5622139	-0.562966	-8e-06
1.1200495980133834e-09	0.083255894	0.0021443798	-0.56040865	-0.5611576	-8e-06
1.1300073108954808e-09	0.08421878	0.0030546691	-0.55859065	-0.559337	-8e-06
1.1400177251695324e-09	0.08593475	0.0028877552	-0.5567362	-0.55748	-8e-06
1.1500000000000004e-09	0.0869297	0.0019646818	-0.5548588	-0.5556003	-8e-06
1.1600136757033804e-09	0.0864387	0.0011568298	-0.5529525	-0.5536911	-8e-06
1.1700241441520137e-09	0.08498723	0.0011125884	-0.55102855	-0.5517639	-8e-06
1.180034613030794e-09	0.0838398	0.0018273636	-0.5490894	-0.54982173	-8e-06
1.1900450708942217e-09	0.08389567	0.0027498542	-0.5471325	-0.5478622	-8e-06
1.2000000000000004e-09	0.08499193	0.0032027615	-0.54516244	-0.54588926	-8e-06
1.2100129377162545e-09	0.08614802	0.00294244	-0.543154	-0.54387724	-8e-06
1.2200234499935136e-09	0.08639775	0.0022840127	-0.54112387	-0.5418434	-8e-06
1.230033955325545e-09	0.085609674	0.0018196173	-0.5390802	-0.5397962	-8e-06
1.240044509846757e-09	0.084526435	0.0019494941	-0.537027	-0.53773946	-8e-06
1.2500000000000004e-09	0.08406074	0.002563896	-0.53497386	-0.5356827	-8e-06
1.2600126353147657e-09	0.08451741	0.0031754747	-0.53289324	-0.5335983	-8e-06
1.2700232243593796e-09	0.08542618	0.0033337513	-0.53079456	-0.53149563	-8e-06
1.2800338142858943e-09	0.085998334	0.002994449	-0.52867943	-0.5293762	-8e-06
1.2900444274446754e-09	0.08580519	0.0025030032	-0.5265548	-0.5272471	-8e-06
1.3000000000000005e-09	0.08508934	0.0022833566	-0.5244384	-0.52512616	-8e-06
1.310012671136636e-09	0.084475696	0.00249583	-0.522307	-0.5229906	-8e-06
1.3200233232131228e-09	0.08444345	0.0029547592	-0.52017033	-0.5208497	-8e-06
1.3300339922736126e-09	0.08494721	0.0033025832	-0.51802474	-0.5186997	-8e-06
1.3400446891800362e-09	0.08552557	0.0032902732	-0.5158707	-0.5165408	-8e-06
1.3500000000000005e-09	0.085716955	0.0029625923	-0.5137245	-0.5143898	-8e-06
1.3600129700307196e-09	0.085416645	0.0025941166	-0.5115667	-0.5122271	-8e-06
1.3700236935973916e-09	0.08491028	0.002481165	-0.50941217	-0.5100681	-8e-06
1.3800344126327828e-09	0.0846161	0.0027071435	-0.5072597	-0.5079113	-8e-06
1.390045122732673e-09	0.08474549	0.0030738234	-0.5051068	-0.5057541	-8e-06
1.4000000000000005e-09	0.08515624	0.0032681029	-0.50296384	-0.5036066	-8e-06
1.4100133854119614e-09	0.08550522	0.0031304187	-0.50080746	-0.50144565	-8e-06
1.4200241394703747e-09	0.08552181	0.0027795185	-0.4986542	-0.49928784	-8e-06
1.430034862441663e-09	0.08522231	0.0025123064	-0.49650618	-0.4971358	-8e-06
1.4400455972344923e-09	0.08487402	0.0025434932	-0.4943636	-0.4949894	-8e-06
1.4500000000000006e-09	0.08476363	0.0028191244	-0.49223593	-0.49285802	-8e-06
1.4600137050860459e-09	0.084962405	0.0030823525	-0.49009567	-0.49071398	-8e-06
1.4700244577719235e-09	0.08528697	0.0031012075	-0.48795542	-0.4885699	-8e-06
1.480035206789441e-09	0.08546614	0.0028726414	-0.48581594	-0.48642668	-8e-06
1.490045935658723e-09	0.08536974	0.0026066673	-0.4836787	-0.484286	-8e-06
1.5000000000000006e-09	0.085102886	0.0025289864	-0.48155543	-0.48215967	-8e-06
1.5100133189233092e-09	0.084893785	0.0026884286	-0.47941884	-0.4800201	-8e-06
1.5200226803696166e-09	0.08490686	0.002935207	-0.4772794	-0.47787762	-8e-06
1.53003206915948e-09	0.08511023	0.0030646955	-0.47513393	-0.47572917	-8e-06
1.5400414674992727e-09	0.08532019	0.002996683	-0.47298157	-0.47357383	-8e-06
1.5500000000000006e-09	0.08536402	0.0028296404	-0.47083274	-0.47142228	-8e-06
1.5600184747019797e-09	0.08521773	0.0027354474	-0.4686627	-0.46924955	-8e-06
1.5700279693801785e-09	0.08501011	0.0028145483	-0.46648422	-0.46706852	-8e-06
1.5800374523432532e-09	0.08490585	0.0030185163	-0.4642924	-0.46487427	-8e-06
1.590046938238815e-09	0.08497019	0.0032083346	-0.46208456	-0.46266395	-8e-06
1.6000000000000007e-09	0.08512504	0.0032781959	-0.4598714	-0.46044827	-8e-06
1.6100125600310786e-09	0.08522777	0.0032366614	-0.45762634	-0.45820063	-8e-06
1.6200221409293204e-09	0.085186794	0.0031839998	-0.45536277	-0.45593458	-8e-06
1.630031697286243e-09	0.085033454	0.0032224453	-0.45307913	-0.45364872	-8e-06
1.6400413056580817e-09	0.084885456	0.0033717135	-0.45077455	-0.4513418	-8e-06
1.6500000000000007e-09	0.08484515	0.003559617	-0.44845992	-0.44902486	-8e-06
1.660017234316594e-09	0.08491883	0.00369319	-0.44610947	-0.44667196	-8e-06
1.670026841919557e-09	0.08502052	0.003731108	-0.4437392	-0.4442993	-8e-06
1.680036487245534e-09	0.08504854	0.0037135892	-0.44134867	-0.44190645	-8e-06
1.6900461957696422e-09	0.08496995	0.0037172078	-0.43893978	-0.43949538	-8e-06
1.7000000000000007e-09	0.08484239	0.0037865145	-0.43652812	-0.4370815	-8e-06
1.7100123584189786e-09	0.08475723	0.003902657	-0.43408787	-0.43463898	-8e-06
1.7200220911012816e-09	0.08476673	0.0040042712	-0.4316359	-0.4321848	-8e-06
1.7300318481623896e-09	0.08484306	0.004042994	-0.42917398	-0.4297207	-8e-06
1.7400415857651727e-09	0.0849085	0.004019291	-0.42670512	-0.42724973	-8e-06
1.7500000000000008e-09	0.08490296	0.0039741793	-0.42424574	-0.42478824	-8e-06
1.7600513482800212e-09	0.0848305	0.003949755	-0.42176342	-0.42230386	-8e-06
1.7700084541010265e-09	0.08475231	0.0039581554	-0.4193075	-0.41984597	-8e-06
1.7800182302840313e-09	0.08472932	0.003976569	-0.4168445	-0.4173809	-8e-06
1.790028066277632e-09	0.08477542	0.003970435	-0.4143898	-0.41492414	-8e-06
1.8000000000000008e-09	0.08484817	0.003921307	-0.41195524	-0.4124876	-8e-06
1.8100464681459238e-09	0.08488966	0.003837563	-0.4095161	-0.4100464	-8e-06
1.820003638138021e-09	0.084873006	0.0037477904	-0.40711442	-0.4076427	-8e-06
1.8300135295269585e-09	0.084822334	0.0036748159	-0.40471798	-0.40524417	-8e-06
1.8400234233641239e-09	0.084787995	0.003623313	-0.4023412	-0.40286523	-8e-06
1.8500000000000008e-09	0.084803216	0.0035770352	-0.39999294	-0.40051478	-8e-06
1.8600045779269505e-09	0.0848587	0.0035133192	-0.39765975	-0.39817935	-8e-06
1.870014521716788e-09	0.08491375	0.0034216985	-0.395348	-0.3958652	-8e-06
1.8800244695442803e-09	0.08493184	0.003311453	-0.3930599	-0.39357466	-8e-06
1.8900344646783362e-09	0.08490999	0.0032038991	-0.3907963	-0.39130855	-8e-06
1.900000000000001e-09	0.084878124	0.0031158563	-0.38856775	-0.38907743	-8e-06
1.9100157990516477e-09	0.08487133	0.0030455904	-0.3863534	-0.38686046	-8e-06
1.9200258191086397e-09	0.08490159	0.0029770753	-0.38416585	-0.38467026	-8e-06
1.9300358673652545e-09	0.08494964	0.0028925056	-0.38200387	-0.3825056	-8e-06
1.940045974672644e-09	0.08498362	0.00278782	-0.37986764	-0.3803666	-8e-06
1.950000000000001e-09	0.084986046	0.002676316	-0.37776896	-0.37826523	-8e-06
1.960012824045989e-09	0.08496655	0.0025750815	-0.37568375	-0.3761773	-8e-06
1.970022942131747e-09	0.084951505	0.002493823	-0.37362465	-0.37411556	-8e-06
1.980033052531597e-09	0.0849613	0.002425569	-0.37159052	-0.37207884	-8e-06
1.9900432234292255e-09	0.08499408	0.0023546724	-0.36958054	-0.37006626	-8e-06
2.000000000000001e-09	0.08502911	0.002271395	-0.36760435	-0.36808753	-8e-06
2.010010870983259e-09	0.085045785	0.0021786212	-0.3656397	-0.36612046	-8e-06
2.0200210900302292e-09	0.08503937	0.002090914	-0.36369666	-0.364175	-8e-06
2.030031312433173e-09	0.08502399	0.0020207688	-0.36177373	-0.36224967	-8e-06
2.0400415894553634e-09	0.08501914	0.001969418	-0.35986918	-0.36034283	-8e-06
2.050000000000001e-09	0.08503308	0.0019274385	-0.35799095	-0.3584624	-8e-06
2.0600168725901953e-09	0.085057534	0.0018832281	-0.35611627	-0.35658547	-8e-06
2.0700271619374864e-09	0.08507534	0.0018340591	-0.35425544	-0.3547225	-8e-06
2.0800374752808024e-09	0.0850754	0.0017872393	-0.35240528	-0.35287017	-8e-06
2.090047794570625e-09	0.085061036	0.0017538476	-0.35056365	-0.3510264	-8e-06
2.100000000000001e-09	0.085046045	0.0017394975	-0.3487388	-0.3491994	-8e-06
2.1100142595740894e-09	0.08504212	0.00174017	-0.34690633	-0.3473648	-8e-06
2.120024637577872e-09	0.08504999	0.0017468159	-0.34507582	-0.34553212	-8e-06
2.13003501731886e-09	0.085059404	0.0017530171	-0.34324428	-0.3436984	-8e-06
2.1400454180566117e-09	0.08505865	0.0017600922	-0.34140947	-0.34186134	-8e-06
2.150000000000001e-09	0.08504438	0.0017749681	-0.3395795	-0.3400291	-8e-06
2.160013052867828e-09	0.08502322	0.0018039821	-0.33773118	-0.33817846	-8e-06
2.170023499140415e-09	0.085005865	0.0018471401	-0.3358737	-0.33631855	-8e-06
2.180033903266382e-09	0.08499772	0.001898603	-0.33400458	-0.33444697	-8e-06
2.1900443087011403e-09	0.08499511	0.0019515638	-0.33212203	-0.3325619	-8e-06
2.200000000000001e-09	0.084989354	0.0020030783	-0.33023506	-0.33067235	-8e-06
2.21001222265496e-09	0.08497428	0.0020562976	-0.32832122	-0.3287559	-8e-06
2.2200226563506402e-09	0.08495121	0.0021154424	-0.32639056	-0.32682246	-8e-06
2.2300330919966303e-09	0.08492715	0.002182445	-0.32444185	-0.324871	-8e-06
2.240043489047883e-09	0.08490865	0.002254644	-0.32247448	-0.32290083	-8e-06
2.250000000000001e-09	0.08489676	0.0023263134	-0.3204989	-0.32092237	-8e-06
2.260011469075869e-09	0.08488675	0.002394015	-0.31849346	-0.318914	-8e-06
2.27002184831638e-09	0.084873	0.0024566762	-0.31646952	-0.31688708	-8e-06
2.280032219048273e-09	0.08485351	0.002516565	-0.31442744	-0.31484205	-8e-06
2.290042642656599e-09	0.084831424	0.0025760026	-0.31236804	-0.3127796	-8e-06
2.300000000000001e-09	0.08481214	0.0026345344	-0.3103034	-0.31071195	-8e-06
2.310010711057352e-09	0.084798664	0.0026899597	-0.30821258	-0.3086182	-8e-06
2.3200210700010336e-09	0.08479003	0.002738384	-0.30610824	-0.30651084	-8e-06
2.330031403625809e-09	0.08478229	0.0027778794	-0.30399185	-0.30439144	-8e-06
2.3400417177124005e-09	0.08477221	0.002809135	-0.3018652	-0.30226177	-8e-06
2.350000000000001e-09	0.08475988	0.0028342847	-0.2997412	-0.30013478	-8e-06
2.3600033340423674e-09	0.08474821	0.0028553135	-0.29760098	-0.29799157	-8e-06
2.3700136532310023e-09	0.084740534	0.0028719704	-0.29545444	-0.2958421	-8e-06
2.3800238845220245e-09	0.08473783	0.0028825342	-0.2933049	-0.2936896	-8e-06
2.3900340915531078e-09	0.08473813	0.0028853961	-0.29115403	-0.2915358	-8e-06
2.4000000000000012e-09	0.08473834	0.0028806252	-0.2890129	-0.28939176	-8e-06
2.4100168873723515e-09	0.084736735	0.0028700484	-0.28686252	-0.28723845	-8e-06
2.4200271144509796e-09	0.08473407	0.002856208	-0.2847166	-0.28508955	-8e-06
2.4300373143421153e-09	0.08473269	0.0028406924	-0.28257477	-0.28294477	-8e-06
2.4400473718106695e-09	0.08473434	0.0028234785	-0.2804379	-0.28080493	-8e-06
2.4500000000000013e-09	0.08473872	0.0028037694	-0.27831882	-0.2786829	-8e-06
2.460013498039124e-09	0.08474379	0.0027809402	-0.27619284	-0.27655384	-8e-06
2.470023465405362e-09	0.08474736	0.002756125	-0.27407393	-0.27443188	-8e-06
2.4800334206323834e-09	0.08474881	0.0027314173	-0.27196142	-0.27231625	-8e-06
2.490043404638801e-09	0.0847493	0.0027087785	-0.26985514	-0.2702068	-8e-06
2.5000000000000013e-09	0.084750585	0.0026890717	-0.26776597	-0.26811442	-8e-06
2.510010558119727e-09	0.08475345	0.0026716208	-0.26567087	-0.26601607	-8e-06
2.5200205108824133e-09	0.084757045	0.0026557972	-0.2635807	-0.2639226	-8e-06
2.5300304504599967e-09	0.08475965	0.0026416413	-0.26149452	-0.261833	-8e-06
2.5400404007757254e-09	0.08476007	0.002630275	-0.25941148	-0.2597465	-8e-06
2.5500000000000013e-09	0.08475853	0.002623216	-0.25734106	-0.2576726	-8e-06
2.5600388112898476e-09	0.08475628	0.0026212682	-0.25525522	-0.25558323	-8e-06
2.5700487664743374e-09	0.08475451	0.0026242917	-0.25317535	-0.25349975	-8e-06
2.5800060124135016e-09	0.08475332	0.0026314144	-0.25110513	-0.25142592	-8e-06
2.590015935148278e-09	0.08475172	0.0026421396	-0.24902156	-0.24933858	-8e-06
2.6000000000000014e-09	0.08474854	0.0026566228	-0.24693954	-0.2472529	-8e-06
2.6100143009445537e-09	0.08474339	0.002675778	-0.24484627	-0.24515584	-8e-06
2.620024247772672e-09	0.08473687	0.0027002986	-0.2427476	-0.24305339	-8e-06
2.630034239859864e-09	0.084730074	0.002730255	-0.24064133	-0.24094336	-8e-06
2.640044202349758e-09	0.08472353	0.002765051	-0.23852621	-0.23882444	-8e-06
2.6500000000000014e-09	0.084716976	0.0028037827	-0.2364124	-0.23670693	-8e-06
2.660011419438752e-09	0.08470949	0.0028466694	-0.23427542	-0.23456617	-8e-06
2.670021429146286e-09	0.084700406	0.0028938877	-0.23212601	-0.23241302	-8e-06
2.6800314453429235e-09	0.08468978	0.0029460578	-0.22996259	-0.23024592	-8e-06
2.6900414601076065e-09	0.084678225	0.0030035055	-0.22778384	-0.22806358	-8e-06
2.7000000000000014e-09	0.08466645	0.003065728	-0.22559983	-0.22587605	-8e-06
2.7100426293673125e-09	0.08465436	0.0031331526	-0.22337943	-0.22365215	-8e-06
2.7200000101633764e-09	0.08464161	0.0032043476	-0.2211587	-0.22142807	-8e-06
2.730010064847233e-09	0.08462737	0.0032803856	-0.21890569	-0.21917176	-8e-06
2.7400201613148256e-09	0.08461135	0.0033612824	-0.21663068	-0.21689358	-8e-06
2.7500000000000015e-09	0.084593795	0.0034470789	-0.21433938	-0.21459913	-8e-06
2.760010665331853e-09	0.084575064	0.0035382323	-0.21201637	-0.21227312	-8e-06
2.7700207766191045e-09	0.08455552	0.00363403	-0.20966752	-0.20992136	-8e-06
2.7800308759884724e-09	0.084535025	0.0037338706	-0.20729151	-0.20754257	-8e-06
2.79004097548145e-09	0.08451316	0.0038372492	-0.20488717	-0.20513543	-8e-06
2.8000000000000015e-09	0.08448972	0.003943261	-0.20246592	-0.20271161	-8e-06
2.810011824890291e-09	0.08446448	0.004052656	-0.20000175	-0.20024481	-8e-06
2.8200219518690023e-09	0.08443804	0.0041642557	-0.19750705	-0.19774759	-8e-06
2.8300321326988465e-09	0.08441089	0.0042771455	-0.19498102	-0.19521904	-8e-06
2.8400422831382813e-09	0.084383376	0.004390134	-0.19242343	-0.19265898	-8e-06
2.8500000000000015e-09	0.084355645	0.004501418	-0.18984802	-0.19008109	-8e-06
2.86003289112807e-09	0.08432728	0.004611329	-0.18722205	-0.18745264	-8e-06
2.8700430557691173e-09	0.084298626	0.0047177984	-0.18457162	-0.18479975	-8e-06
2.8800005303319274e-09	0.08427018	0.0048195855	-0.18190603	-0.18213165	-8e-06
2.8900107044556165e-09	0.084242195	0.0049166586	-0.17919838	-0.17942145	-8e-06
2.9000000000000016e-09	0.08421537	0.0050070216	-0.17647016	-0.17669067	-8e-06
2.9100151938904655e-09	0.084189914	0.0050897943	-0.17371058	-0.17392845	-8e-06
2.920025340909433e-09	0.084165916	0.0051635043	-0.17093047	-0.17114565	-8e-06
2.9300354859881847e-09	0.08414353	0.005227179	-0.1681311	-0.16834351	-8e-06
2.9400456585071145e-09	0.084122986	0.0052799326	-0.16531548	-0.16552505	-8e-06
2.9500000000000016e-09	0.08410483	0.005320691	-0.16250268	-0.16270933	-8e-06
2.9600127749004013e-09	0.08408936	0.005349001	-0.15966392	-0.15986757	-8e-06
2.9700229249832857e-09	0.08407704	0.005363666	-0.15682021	-0.15702079	-8e-06
2.9800330596411232e-09	0.084068015	0.0053639137	-0.15397483	-0.15417223	-8e-06
2.990043190600072e-09	0.08406229	0.0053491984	-0.15113187	-0.15132602	-8e-06
3.0000000000000016e-09	0.0840599	0.0053194263	-0.14831068	-0.14850152	-8e-06
3.010010696278406e-09	0.08406095	0.005274178	-0.14548513	-0.14567262	-8e-06
3.020020862829609e-09	0.084065616	0.0052136136	-0.14267501	-0.14285913	-8e-06
3.030031006177529e-09	0.08407402	0.0051379083	-0.13988437	-0.1400651	-8e-06
3.0400411275246765e-09	0.08408605	0.005047448	-0.13711734	-0.13729472	-8e-06
3.0500000000000017e-09	0.08410131	0.004943478	-0.13439178	-0.13456586	-8e-06
3.0600046240753217e-09	0.084119566	0.004826002	-0.13168474	-0.13185556	-8e-06
3.070014731581976e-09	0.084140375	0.004696691	-0.12901066	-0.12917832	-8e-06
3.0800248220868413e-09	0.084163405	0.0045571243	-0.126374	-0.12653856	-8e-06
3.090034915551156e-09	0.0841883	0.0044089514	-0.12377721	-0.12393882	-8e-06
3.1000000000000017e-09	0.08421448	0.004254651	-0.121233724	-0.12139251	-8e-06
3.1100120020781626e-09	0.084241614	0.004094666	-0.118721545	-0.11887763	-8e-06
3.1200221171095734e-09	0.08426894	0.0039317166	-0.11625421	-0.11640771	-8e-06
3.1300321856718956e-09	0.08429593	0.0037677821	-0.11383166	-0.11398269	-8e-06
3.1400423043682583e-09	0.084322125	0.003604807	-0.11145381	-0.11160247	-8e-06
3.1500000000000017e-09	0.0843471	0.0034454227	-0.10913219	-0.109278604	-8e-06
3.1600394871911488e-09	0.084370874	0.0032890793	-0.10683472	-0.10697894	-8e-06
3.1700496141197006e-09	0.08439294	0.0031389324	-0.104585685	-0.10472782	-8e-06
3.1800070627612685e-09	0.08441301	0.0029964424	-0.10238814	-0.1025282	-8e-06
3.190017187318642e-09	0.08443109	0.0028611135	-0.100216724	-0.100354746	-8e-06
3.2000000000000018e-09	0.08444693	0.0027348676	-0.09808669	-0.09822269	-8e-06
3.210013978261227e-09	0.08446063	0.0026175412	-0.09598311	-0.096117094	-8e-06
3.22002413623415e-09	0.08447223	0.002509933	-0.09391091	-0.09404284	-8e-06
3.230034297414597e-09	0.08448178	0.0024121243	-0.09186661	-0.091996476	-8e-06
3.2400444352282133e-09	0.08448938	0.0023240773	-0.08984759	-0.08997534	-8e-06
3.250000000000002e-09	0.084495045	0.0022460222	-0.087862015	-0.08798766	-8e-06
3.2600118448129278e-09	0.08447056	0.0022251634	-0.085916504	-0.0860402	-8e-06
3.2700219894399303e-09	0.08446457	0.0023655938	-0.0839906	-0.08411214	-8e-06
3.2800321555509553e-09	0.084483385	0.002466329	-0.08208158	-0.08220069	-8e-06
3.29004234274065e-09	0.08451149	0.0023986045	-0.080188125	-0.080304824	-8e-06
3.300000000000002e-09	0.08452621	0.0021975115	-0.07831909	-0.07843341	-8e-06
3.3100058482896235e-09	0.08449317	0.0020506978	-0.07648325	-0.0765955	-8e-06
3.320016040251656e-09	0.084461465	0.0021792918	-0.074658945	-0.07476894	-8e-06
3.3300262554147106e-09	0.084456146	0.002400964	-0.07284473	-0.07295219	-8e-06
3.340036452631618e-09	0.08447714	0.0024895866	-0.071039796	-0.071144655	-8e-06
3.350000000000002e-09	0.08450454	0.00236399	-0.06925265	-0.06935495	-8e-06
3.360052225593464e-09	0.084495	0.0021683571	-0.06748544	-0.067585506	-8e-06
3.370009769791706e-09	0.08447052	0.0021740145	-0.06574451	-0.065842316	-8e-06
3.3800199705664638e-09	0.08445198	0.002314316	-0.06400275	-0.064098045	-8e-06
3.3900301453699663e-09	0.084454164	0.002430218	-0.062269147	-0.062361885	-8e-06
3.400000000000002e-09	0.084471986	0.0024099627	-0.060551237	-0.06064148	-8e-06
3.4100401396830485e-09	0.08447103	0.0023021258	-0.05885407	-0.05894216	-8e-06
3.4200503183923622e-09	0.08446218	0.0022937655	-0.05717211	-0.05725797	-8e-06
3.4300078207985544e-09	0.08445702	0.0023352823	-0.055508755	-0.055592217	-8e-06
3.440018061395843e-09	0.08446235	0.0023513518	-0.05384704	-0.0539281	-8e-06
3.450000000000002e-09	0.08447228	0.0023076038	-0.05220134	-0.05228014	-8e-06
3.4600133018595137e-09	0.08446371	0.002255553	-0.050583545	-0.05066042	-8e-06
3.4700235131966842e-09	0.08445339	0.002310082	-0.048978608	-0.049053438	-8e-06
3.4800337275876426e-09	0.08445643	0.002361145	-0.047385897	-0.04745849	-8e-06
3.490043940997296e-09	0.084474996	0.0023207506	-0.045806475	-0.04587682	-8e-06
3.500000000000002e-09	0.08449441	0.0021988687	-0.04424986	-0.04431815	-8e-06
3.510011578154409e-09	0.084489	0.0021033683	-0.042718757	-0.042785347	-8e-06
3.5200217909246133e-09	0.084473	0.0021685734	-0.041202474	-0.041267257	-8e-06
3.530032042551911e-09	0.084468335	0.0022645995	-0.039700087	-0.039762825	-8e-06
3.540042239535916e-09	0.08448535	0.0022564956	-0.03821218	-0.038272846	-8e-06
3.550000000000002e-09	0.08451218	0.0021234734	-0.03674723	-0.03680597	-8e-06
3.560011249449667e-09	0.08452026	0.0019827196	-0.035307992	-0.035365157	-8e-06
3.5700214803373102e-09	0.08451141	0.0020033256	-0.033883695	-0.03393922	-8e-06
3.58003166405943e-09	0.08450175	0.002093737	-0.032472845	-0.032526493	-8e-06
3.5900418930811354e-09	0.08450694	0.002122164	-0.031075208	-0.03112691	-8e-06
3.600000000000002e-09	0.084526084	0.0020363799	-0.029698053	-0.029747924	-8e-06
3.6100396840622483e-09	0.0845386	0.0019173537	-0.02833966	-0.02838799	-8e-06
3.620049929623624e-09	0.08453987	0.001921117	-0.026997188	-0.027043927	-8e-06
3.6300074650345717e-09	0.0845359	0.0019831907	-0.025671883	-0.025716823	-8e-06
3.6400177258825055e-09	0.08453655	0.0020082595	-0.024348903	-0.024391972	-8e-06
3.650000000000002e-09	0.08454454	0.00195538	-0.023038434	-0.023079704	-8e-06
3.6600136260201325e-09	0.0845496	0.0018863362	-0.021747386	-0.021787127	-8e-06
3.670023893165738e-09	0.08455082	0.001922099	-0.020463279	-0.020501414	-8e-06
3.680034114083481e-09	0.08455129	0.0019915022	-0.019183604	-0.019219909	-8e-06
3.6900443972074386e-09	0.08455435	0.0020121662	-0.017907277	-0.017941695	-8e-06
3.700000000000002e-09	0.084558725	0.001966004	-0.016640482	-0.016673073	-8e-06
3.7100120260221218e-09	0.08455749	0.001924226	-0.015381737	-0.015412731	-8e-06
3.7200222878519735e-09	0.08455251	0.001995097	-0.014122801	-0.014152123	-8e-06
3.730032552757685e-09	0.08454922	0.0020994944	-0.01286115	-0.012888563	-8e-06
3.7400428203086335e-09	0.08455079	0.0021473109	-0.011595548	-0.011620981	-8e-06
3.750000000000002e-09	0.084554255	0.0021196082	-0.010331926	-0.010355411	-8e-06
3.760010666840437e-09	0.084552445	0.0020916122	-0.0090675065	-0.009089255	-8e-06
3.770020922289135e-09	0.08454477	0.0021734096	-0.007795289	-0.0078152185	-8e-06
3.780031174726784e-09	0.084536	0.002301075	-0.006512893	-0.006530784	-8e-06
3.790041443428301e-09	0.08453083	0.002386745	-0.005219021	-0.00523476	-8e-06
3.800000000000002e-09	0.08452892	0.0023999775	-0.0039196205	-0.003933233	-8e-06
3.810026575117978e-09	0.08452567	0.00240028	-0.0026081402	-0.0026197762	-8e-06
3.820036873370726e-09	0.0845182	0.0024878115	-0.0012837632	-0.0012933544	-8e-06
3.830047148292952e-09	0.08450775	0.0026190258	5.771319e-05	5.0373936e-05	-8e-06
3.840004752007334e-09	0.08449721	0.0027242305	0.0014102459	0.0014052626	-8e-06
3.850000000000001e-09	0.084487736	0.0027752253	0.0027867318	0.002784131	-8e-06
3.8600158354278706e-09	0.084478915	0.002813587	0.0041772174	0.004176871	-8e-06
3.87002610974497e-09	0.084469035	0.0029178876	0.0055878893	0.005589868	-8e-06
3.880036412819219e-09	0.084457844	0.0030514265	0.0070210965	0.0070255892	-8e-06
3.890046709137892e-09	0.08444533	0.00316085	0.008477555	0.008484675	-8e-06
3.900000000000001e-09	0.08443133	0.003227257	0.009948991	0.009958731	-8e-06