# t (s)	mx ()	my ()	mz ()	m_z_yrange7_ ()	I_x (A)	ext_dwxpos (m)
0	0.10794603	-5.415787e-05	0.68648654	0.68621504	-8e-06	1.3687557e-08
1.0031272030880336e-11	0.107946716	-8.300376e-05	0.6864816	0.68621016	-8e-06	1.3687643e-08
2.0016943163870756e-11	0.10794827	-0.000110400586	0.686469	0.6861976	-8e-06	1.3687841e-08
3.000323180074398e-11	0.1079498	-0.00013608512	0.6864491	0.68617755	-8e-06	1.36880365e-08
4.0030784400327354e-11	0.107951	-0.00016015461	0.6864222	0.68615055	-8e-06	1.3688187e-08
5.0011624554735285e-11	0.10795198	-0.00018266724	0.68638885	0.686117	-8e-06	1.3688311e-08
6.003493141272261e-11	0.1079533	-0.00020373406	0.6863493	0.68607736	-8e-06	1.368848e-08
7.000410396225812e-11	0.107955456	-0.00022279877	0.68630445	0.6860323	-8e-06	1.36887515e-08
8.002798849587155e-11	0.107958436	-0.00023959136	0.68625426	0.68598217	-8e-06	1.3689131e-08
9.005217206411542e-11	0.10796176	-0.00025370193	0.6861999	0.68592757	-8e-06	1.3689551e-08
1.0001827650260039e-10	0.107964896	-0.0002650016	0.6861422	0.68586963	-8e-06	1.3689949e-08
1.1003240672486379e-10	0.10796766	-0.00027381483	0.6860813	0.6858086	-8e-06	1.36903e-08
1.2004699980037856e-10	0.10797033	-0.00028026092	0.6860181	0.6857452	-8e-06	1.3690637e-08
1.3001004822040915e-10	0.10797326	-0.00028440403	0.68595356	0.68568057	-8e-06	1.3691009e-08
1.4002621960886963e-10	0.1079767	-0.00028612136	0.68588793	0.68561465	-8e-06	1.3691446e-08
1.500418600486092e-10	0.10798045	-0.00028515814	0.68582207	0.68554854	-8e-06	1.3691921e-08
1.600037272981715e-10	0.10798409	-0.00028150165	0.68575704	0.68548346	-8e-06	1.3692383e-08
1.7001704973413646e-10	0.10798738	-0.00027532657	0.68569297	0.6854191	-8e-06	1.36928e-08
1.8002892120473417e-10	0.1079903	-0.00026697415	0.68563056	0.6853565	-8e-06	1.369317e-08
1.900400549309123e-10	0.107993044	-0.00025670585	0.6855706	0.6852965	-8e-06	1.3693518e-08
2.000509367597225e-10	0.10799584	-0.00024465256	0.6855136	0.6852393	-8e-06	1.3693872e-08
2.1000937311438292e-10	0.10799874	-0.000230902	0.68546045	0.68518597	-8e-06	1.369424e-08
2.2002102582041978e-10	0.10800158	-0.0002153198	0.6854109	0.6851364	-8e-06	1.3694599e-08
2.3003333528082053e-10	0.10800408	-0.00019815366	0.6853658	0.68509114	-8e-06	1.3694915e-08
2.4004624373320545e-10	0.10800608	-0.00017973702	0.68532544	0.6850506	-8e-06	1.3695171e-08
2.500068803452702e-10	0.10800766	-0.0001605427	0.68529034	0.6850154	-8e-06	1.3695371e-08
2.600203894773901e-10	0.108009025	-0.00014063237	0.68526024	0.68498534	-8e-06	1.3695544e-08
2.700338426880039e-10	0.108010285	-0.00012024118	0.6852358	0.6849608	-8e-06	1.3695703e-08
2.8004709616536184e-10	0.10801142	-9.948999e-05	0.68521696	0.6849418	-8e-06	1.369585e-08
2.9000756570944843e-10	0.10801224	-7.864003e-05	0.6852038	0.6849287	-8e-06	1.3695951e-08
3.0002076237917745e-10	0.108012676	-5.7679747e-05	0.6851964	0.68492126	-8e-06	1.3696007e-08
3.100340640387631e-10	0.10801267	-3.706895e-05	0.68519455	0.68491954	-8e-06	1.3696006e-08
3.200475238594071e-10	0.10801223	-1.7100954e-05	0.68519825	0.68492323	-8e-06	1.369595e-08
3.3000855383127543e-10	0.10801167	1.9971003e-06	0.68520737	0.6849325	-8e-06	1.3695879e-08
3.400225713085251e-10	0.108011045	2.0245774e-05	0.68522173	0.68494684	-8e-06	1.36958e-08
3.500370269618598e-10	0.10801017	3.7449016e-05	0.6852409	0.6849661	-8e-06	1.369569e-08
3.6005185740547e-10	0.108008996	5.3549666e-05	0.6852649	0.68499005	-8e-06	1.3695541e-08
3.700141717333485e-10	0.10800753	6.8258414e-05	0.6852928	0.6850181	-8e-06	1.3695355e-08
3.8002934179219266e-10	0.10800578	8.149653e-05	0.6853248	0.6850502	-8e-06	1.3695132e-08
3.900444077284024e-10	0.108003825	9.306548e-05	0.6853603	0.68508583	-8e-06	1.3694885e-08
4.000040247220927e-10	0.10800183	0.000102877995	0.6853986	0.6851243	-8e-06	1.3694632e-08
4.100134541307295e-10	0.107999794	0.00011101782	0.68543965	0.68516546	-8e-06	1.3694374e-08
4.2002315481056525e-10	0.10799769	0.00011741175	0.6854828	0.6852087	-8e-06	1.3694107e-08
4.300330849653555e-10	0.10799546	0.000122050755	0.6855275	0.68525356	-8e-06	1.3693826e-08
4.4004316489817324e-10	0.107993074	0.00012487719	0.68557346	0.68529963	-8e-06	1.3693522e-08
4.500006838956449e-10	0.107990645	0.0001258489	0.68561965	0.6853459	-8e-06	1.3693213e-08
4.600109808066476e-10	0.10798823	0.00012501306	0.6856662	0.6853926	-8e-06	1.3692908e-08
4.70021340763074e-10	0.10798587	0.0001224253	0.68571234	0.68543893	-8e-06	1.3692609e-08
4.800317404335317e-10	0.10798366	0.000118169875	0.68575776	0.6854845	-8e-06	1.3692329e-08
4.900421990960158e-10	0.1079815	0.00011237111	0.68580186	0.6855287	-8e-06	1.36920555e-08
5.000000603016571e-10	0.10797938	0.000105153376	0.685844	0.685571	-8e-06	1.36917855e-08
5.100107085514729e-10	0.10797732	9.6501615e-05	0.68588436	0.6856113	-8e-06	1.3691524e-08
5.200214600060172e-10	0.10797539	8.654419e-05	0.6859221	0.6856492	-8e-06	1.3691278e-08
5.300323801471578e-10	0.10797367	7.5424e-05	0.6859572	0.68568426	-8e-06	1.3691061e-08
5.400434330702605e-10	0.10797213	6.330402e-05	0.685989	0.68571633	-8e-06	1.3690865e-08
5.500019353838581e-10	0.10797071	5.043192e-05	0.6860174	0.6857447	-8e-06	1.3690686e-08
5.600132661289552e-10	0.10796943	3.6842313e-05	0.6860423	0.68576974	-8e-06	1.3690524e-08
5.700247116230043e-10	0.10796837	2.2687622e-05	0.6860634	0.6857909	-8e-06	1.3690389e-08
5.800362536691267e-10	0.10796753	8.105731e-06	0.68608063	0.6858081	-8e-06	1.3690284e-08
5.900479414009683e-10	0.10796693	-6.7128244e-06	0.6860939	0.6858214	-8e-06	1.3690207e-08
6.000069679543661e-10	0.10796648	-2.1523858e-05	0.6861031	0.68583065	-8e-06	1.369015e-08
6.100187684501851e-10	0.10796617	-3.628174e-05	0.6861082	0.6858358	-8e-06	1.369011e-08
6.200305383202399e-10	0.10796611	-5.0771374e-05	0.68610936	0.68583685	-8e-06	1.3690104e-08
6.300422083222945e-10	0.10796637	-6.4911525e-05	0.6861067	0.6858341	-8e-06	1.3690136e-08
6.40001210497081e-10	0.10796673	-7.852219e-05	0.68610007	0.6858275	-8e-06	1.3690181e-08
6.500128499038329e-10	0.10796713	-9.151964e-05	0.6860898	0.68581724	-8e-06	1.3690235e-08
6.600243623628704e-10	0.10796774	-0.000103691775	0.686076	0.6858034	-8e-06	1.3690311e-08
6.700357681041269e-10	0.107968636	-0.000115025054	0.68605906	0.68578637	-8e-06	1.3690424e-08
6.800470563821591e-10	0.107969746	-0.00012542271	0.68603903	0.6857662	-8e-06	1.3690564e-08
6.900054975196552e-10	0.10797095	-0.00013468819	0.68601626	0.6857435	-8e-06	1.3690716e-08
7.000165762647583e-10	0.10797215	-0.00014283403	0.6859911	0.68571824	-8e-06	1.3690869e-08
7.100275927229485e-10	0.107973464	-0.00014976748	0.68596375	0.68569076	-8e-06	1.3691035e-08
7.200385941962964e-10	0.107974894	-0.00015550006	0.6859346	0.68566155	-8e-06	1.3691217e-08
7.300495309838639e-10	0.107976474	-0.0001600077	0.68590397	0.68563086	-8e-06	1.3691416e-08
7.400076697172476e-10	0.10797812	-0.00016320868	0.6858724	0.68559915	-8e-06	1.3691627e-08
7.500184621849345e-10	0.107979804	-0.00016509446	0.6858399	0.6855665	-8e-06	1.369184e-08
7.60029326027017e-10	0.10798146	-0.00016567057	0.685807	0.68553346	-8e-06	1.3692049e-08
7.700402262687861e-10	0.10798311	-0.00016499819	0.68577397	0.68550044	-8e-06	1.3692259e-08
7.800510727413773e-10	0.10798475	-0.00016311942	0.6857413	0.68546766	-8e-06	1.3692466e-08
7.900093215488789e-10	0.107986376	-0.00016009218	0.68570936	0.68543565	-8e-06	1.3692672e-08
8.000202496852869e-10	0.107987955	-0.00015592625	0.6856782	0.68540436	-8e-06	1.3692874e-08
8.100312659482528e-10	0.1079895	-0.00015070311	0.6856482	0.68537444	-8e-06	1.3693068e-08
8.200423207107942e-10	0.10799096	-0.0001444947	0.6856198	0.6853459	-8e-06	1.3693254e-08
8.300006641106675e-10	0.10799233	-0.00013742837	0.68559337	0.68531936	-8e-06	1.3693428e-08
8.400117949334404e-10	0.10799359	-0.00012952421	0.6855687	0.68529457	-8e-06	1.3693588e-08
8.500229125985202e-10	0.1079947	-0.00012093814	0.6855462	0.6852721	-8e-06	1.3693727e-08
8.600340776367674e-10	0.10799569	-0.00011176642	0.6855262	0.6852521	-8e-06	1.3693854e-08
8.700452347395552e-10	0.10799658	-0.00010212037	0.6855087	0.68523455	-8e-06	1.3693966e-08
8.800036914977135e-10	0.107997335	-9.213687e-05	0.68549395	0.6852198	-8e-06	1.3694064e-08
8.900148120003774e-10	0.10799798	-8.1809914e-05	0.68548185	0.68520766	-8e-06	1.36941445e-08
9.000259423242455e-10	0.1079985	-7.133905e-05	0.68547267	0.68519837	-8e-06	1.369421e-08
9.10037078700551e-10	0.1079988	-6.0842114e-05	0.68546635	0.68519205	-8e-06	1.3694248e-08
9.200482544987543e-10	0.10799895	-5.0410363e-05	0.6854629	0.68518865	-8e-06	1.3694267e-08
9.300067249665754e-10	0.1079989	-4.020073e-05	0.68546224	0.68518794	-8e-06	1.3694262e-08
9.40017836393133e-10	0.1079987	-3.0209714e-05	0.6854643	0.6851901	-8e-06	1.3694236e-08
9.500289187315512e-10	0.10799848	-2.059375e-05	0.68546903	0.6851948	-8e-06	1.36942075e-08
9.600399539363295e-10	0.107998244	-1.1466153e-05	0.6854764	0.6852022	-8e-06	1.3694178e-08
9.70050983222867e-10	0.10799784	-2.8986285e-06	0.6854862	0.685212	-8e-06	1.3694127e-08
9.800092995315635e-10	0.10799719	5.0732265e-06	0.6854983	0.68522424	-8e-06	1.3694044e-08
9.900203043068424e-10	0.10799637	1.2444397e-05	0.6855126	0.6852385	-8e-06	1.3693939e-08
1.0000312751587884e-09	0.10799543	1.9017329e-05	0.68552876	0.68525475	-8e-06	1.369382e-08
1.0100422423179369e-09	0.10799448	2.472032e-05	0.6855467	0.6852727	-8e-06	1.36937e-08
1.0200005118362506e-09	0.107993536	2.9543346e-05	0.685566	0.68529207	-8e-06	1.36935805e-08
1.0300114774106366e-09	0.10799258	3.3543063e-05	0.6855867	0.6853128	-8e-06	1.3693458e-08
1.040022449747156e-09	0.10799153	3.6688383e-05	0.6856084	0.6853345	-8e-06	1.36933265e-08
1.0500334616283353e-09	0.10799036	3.895624e-05	0.6856308	0.6853571	-8e-06	1.3693178e-08
1.0600444450383971e-09	0.10798914	4.030352e-05	0.68565387	0.68538016	-8e-06	1.3693023e-08
1.0700027352321115e-09	0.1079879	4.0709157e-05	0.68567705	0.6854034	-8e-06	1.3692865e-08
1.0800137330921787e-09	0.107986696	4.0187697e-05	0.68570036	0.6854267	-8e-06	1.3692714e-08
1.090024735063909e-09	0.10798557	3.8802813e-05	0.68572336	0.68544996	-8e-06	1.369257e-08
1.1000357525195483e-09	0.10798448	3.6606652e-05	0.6857461	0.68547267	-8e-06	1.3692433e-08
1.1100467765180108e-09	0.10798342	3.365638e-05	0.6857681	0.6854947	-8e-06	1.3692297e-08
1.1200051243730468e-09	0.10798233	2.9999124e-05	0.68578917	0.6855159	-8e-06	1.3692158e-08
1.130016165757824e-09	0.10798125	2.5620846e-05	0.68580925	0.68553597	-8e-06	1.3692022e-08
1.1400271902101028e-09	0.10798028	2.0573692e-05	0.685828	0.6855548	-8e-06	1.36919e-08
1.1500382133101493e-09	0.10797943	1.4925354e-05	0.68584543	0.68557227	-8e-06	1.3691792e-08
1.1600492607042727e-09	0.10797869	8.80469e-06	0.68586135	0.6855882	-8e-06	1.36916976e-08
1.170007618686289e-09	0.10797801	2.348586e-06	0.6858754	0.6856023	-8e-06	1.3691611e-08
1.180018634285165e-09	0.10797737	-4.462514e-06	0.68588775	0.68561465	-8e-06	1.3691531e-08
1.1900296648930955e-09	0.107976794	-1.1564931e-05	0.6858982	0.68562514	-8e-06	1.3691455e-08
1.20004065940524e-09	0.10797631	-1.8889972e-05	0.68590665	0.68563366	-8e-06	1.36913965e-08
1.2100516486368352e-09	0.10797601	-2.6341368e-05	0.6859131	0.6856401	-8e-06	1.3691358e-08
1.2200099779491659e-09	0.10797585	-3.377321e-05	0.68591744	0.6856445	-8e-06	1.3691337e-08
1.2300209991730915e-09	0.10797578	-4.1154406e-05	0.6859198	0.6856469	-8e-06	1.3691329e-08
1.240032010144958e-09	0.10797581	-4.8386184e-05	0.6859203	0.6856473	-8e-06	1.3691333e-08
1.2500429950814018e-09	0.107975915	-5.5427932e-05	0.68591875	0.6856457	-8e-06	1.3691346e-08
1.2600012986809153e-09	0.10797604	-6.2187886e-05	0.6859154	0.68564236	-8e-06	1.3691363e-08
1.2700122804313501e-09	0.1079762	-6.866455e-05	0.6859102	0.6856371	-8e-06	1.3691382e-08
1.2800233109374179e-09	0.10797649	-7.4758136e-05	0.68590313	0.6856301	-8e-06	1.3691419e-08
1.2900342696945132e-09	0.10797695	-8.0426034e-05	0.68589455	0.68562144	-8e-06	1.3691478e-08
1.3000452326947411e-09	0.10797757	-8.561408e-05	0.6858844	0.68561125	-8e-06	1.36915554e-08
1.3100035033100899e-09	0.10797821	-9.021599e-05	0.685873	0.68559974	-8e-06	1.3691637e-08
1.3200144941360501e-09	0.10797883	-9.423626e-05	0.6858602	0.68558705	-8e-06	1.3691716e-08
1.3300254905587574e-09	0.10797947	-9.764933e-05	0.68584645	0.6855732	-8e-06	1.3691797e-08
1.340036481062073e-09	0.10798016	-0.00010047826	0.6858318	0.6855585	-8e-06	1.3691884e-08
1.3500474452942954e-09	0.107980944	-0.000102702	0.6858163	0.68554306	-8e-06	1.3691984e-08
1.360005749319152e-09	0.10798181	-0.0001042714	0.68580043	0.6855271	-8e-06	1.3692093e-08
1.3700167385232538e-09	0.10798268	-0.00010517393	0.68578416	0.68551075	-8e-06	1.3692204e-08
1.3800277412673481e-09	0.107983515	-0.00010540734	0.6857676	0.6854941	-8e-06	1.36923095e-08
1.3900387072186746e-09	0.10798432	-0.00010500446	0.68575114	0.68547755	-8e-06	1.3692412e-08
1.4000497296185632e-09	0.1079851	-0.00010400565	0.6857348	0.68546116	-8e-06	1.3692511e-08
1.4100080104162313e-09	0.10798591	-0.000102464335	0.6857189	0.68544513	-8e-06	1.3692612e-08
1.420018996051874e-09	0.10798672	-0.000100358426	0.6857032	0.6854296	-8e-06	1.3692715e-08
1.4300299672744251e-09	0.10798749	-9.7711e-05	0.68568826	0.6854145	-8e-06	1.3692816e-08
1.440040965708433e-09	0.10798824	-9.456017e-05	0.6856741	0.68540037	-8e-06	1.3692909e-08
1.4500519455602683e-09	0.107988924	-9.095255e-05	0.6856608	0.685387	-8e-06	1.3692995e-08
1.4600102684630062e-09	0.10798951	-8.6969885e-05	0.68564856	0.6853748	-8e-06	1.3693072e-08
1.4700212813427672e-09	0.10799007	-8.264325e-05	0.6856374	0.68536353	-8e-06	1.3693141e-08
1.4800323030254179e-09	0.10799056	-7.8036835e-05	0.68562746	0.6853536	-8e-06	1.3693205e-08
1.4900433109009215e-09	0.10799102	-7.319626e-05	0.6856188	0.68534493	-8e-06	1.3693261e-08
1.5000016209567373e-09	0.1079914	-6.817618e-05	0.68561155	0.68533766	-8e-06	1.369331e-08
1.510012631373937e-09	0.10799173	-6.2984625e-05	0.68560565	0.68533176	-8e-06	1.3693351e-08
1.5200235921993297e-09	0.10799195	-5.7724374e-05	0.6856012	0.6853273	-8e-06	1.3693379e-08
1.5300345878160388e-09	0.10799207	-5.246061e-05	0.68559813	0.68532425	-8e-06	1.3693394e-08
1.5400455912702397e-09	0.10799209	-4.7251502e-05	0.6855966	0.68532264	-8e-06	1.3693397e-08
1.5500039622892071e-09	0.10799206	-4.216524e-05	0.68559635	0.6853224	-8e-06	1.3693393e-08
1.5600149648942307e-09	0.107992016	-3.7191796e-05	0.6855974	0.68532354	-8e-06	1.3693387e-08
1.5700259684220902e-09	0.10799194	-3.240161e-05	0.6855999	0.68532604	-8e-06	1.3693377e-08
1.5800369424330069e-09	0.10799179	-2.7834554e-05	0.6856036	0.6853298	-8e-06	1.3693359e-08
1.5900479413308797e-09	0.10799155	-2.3537003e-05	0.6856086	0.68533474	-8e-06	1.3693329e-08
1.6000062403195094e-09	0.10799125	-1.9561354e-05	0.6856147	0.6853408	-8e-06	1.369329e-08
1.6100172384357058e-09	0.107990846	-1.5920896e-05	0.6856219	0.6853481	-8e-06	1.3693239e-08
1.6200282521779334e-09	0.107990384	-1.2668024e-05	0.68563	0.68535626	-8e-06	1.369318e-08
1.6300392487910762e-09	0.107989915	-9.824049e-06	0.685639	0.68536526	-8e-06	1.3693121e-08
1.640050217552446e-09	0.10798944	-7.4092773e-06	0.6856488	0.68537503	-8e-06	1.369306e-08
1.6500085132568174e-09	0.10798894	-5.4302277e-06	0.6856591	0.6853854	-8e-06	1.3692997e-08
1.6600195298683865e-09	0.10798841	-3.883891e-06	0.6856701	0.6853964	-8e-06	1.369293e-08
1.6700304935673857e-09	0.10798782	-2.785812e-06	0.6856814	0.6854077	-8e-06	1.3692855e-08
1.6800414934618412e-09	0.1079872	-2.1480234e-06	0.68569297	0.6854193	-8e-06	1.3692778e-08
1.6900524688397787e-09	0.10798659	-1.9805539e-06	0.68570465	0.685431	-8e-06	1.36927e-08
1.700010799002173e-09	0.10798602	-2.2688623e-06	0.68571615	0.6854427	-8e-06	1.3692627e-08
1.7100217826899154e-09	0.107985444	-2.9823632e-06	0.6857278	0.6854543	-8e-06	1.3692555e-08
1.720032815475777e-09	0.10798488	-4.1015014e-06	0.68573916	0.68546575	-8e-06	1.3692482e-08
1.7300438195766903e-09	0.10798433	-5.6117365e-06	0.6857502	0.6854767	-8e-06	1.36924125e-08
1.7400021312176818e-09	0.10798379	-7.4869954e-06	0.6857607	0.6854873	-8e-06	1.3692342e-08
1.7500131018872593e-09	0.10798327	-9.721762e-06	0.68577075	0.68549734	-8e-06	1.3692278e-08
1.7600240989100468e-09	0.10798278	-1.2271412e-05	0.68578005	0.68550664	-8e-06	1.3692216e-08
1.770035092040461e-09	0.10798235	-1.5102852e-05	0.68578875	0.6855154	-8e-06	1.3692162e-08
1.7800460786843887e-09	0.10798196	-1.8174967e-05	0.68579656	0.6855233	-8e-06	1.3692112e-08
1.7900044145143519e-09	0.10798162	-2.142809e-05	0.68580353	0.68553025	-8e-06	1.369207e-08
1.8000154577149603e-09	0.10798131	-2.4861216e-05	0.6858096	0.6855363	-8e-06	1.369203e-08
1.810026413483862e-09	0.10798103	-2.8430726e-05	0.68581474	0.6855415	-8e-06	1.3691995e-08
1.8200373868641217e-09	0.107980825	-3.2093496e-05	0.68581885	0.68554556	-8e-06	1.3691968e-08
1.8300483847460928e-09	0.10798068	-3.5806912e-05	0.685822	0.6855487	-8e-06	1.3691951e-08
1.8400066626229297e-09	0.10798061	-3.9510796e-05	0.68582416	0.6855508	-8e-06	1.3691941e-08
1.8500176745640213e-09	0.107980594	-4.3200645e-05	0.6858253	0.68555194	-8e-06	1.3691939e-08
1.8600287045577613e-09	0.10798058	-4.6810266e-05	0.6858254	0.6855521	-8e-06	1.3691938e-08
1.870039729185786e-09	0.10798061	-5.0321614e-05	0.68582463	0.6855513	-8e-06	1.369194e-08
1.8800507037428034e-09	0.107980676	-5.3707106e-05	0.68582284	0.6855495	-8e-06	1.369195e-08
1.8900090161015986e-09	0.107980795	-5.6923127e-05	0.6858203	0.6855469	-8e-06	1.3691966e-08
1.9000200011307747e-09	0.10798098	-5.996967e-05	0.68581676	0.6855435	-8e-06	1.3691988e-08
1.9100310056143864e-09	0.1079812	-6.278506e-05	0.68581253	0.68553907	-8e-06	1.36920155e-08
1.920041980503977e-09	0.10798145	-6.534825e-05	0.6858074	0.68553406	-8e-06	1.3692048e-08
1.930000316388472e-09	0.107981734	-6.763015e-05	0.6858017	0.68552834	-8e-06	1.3692084e-08
1.9400113178247316e-09	0.107982054	-6.964781e-05	0.6857953	0.6855219	-8e-06	1.3692125e-08
1.9500223163801235e-09	0.107982405	-7.137415e-05	0.68578845	0.68551505	-8e-06	1.3692169e-08
1.9600333001061774e-09	0.10798279	-7.278811e-05	0.6857811	0.68550766	-8e-06	1.3692217e-08
1.970044314618964e-09	0.10798319	-7.387617e-05	0.68577343	0.68549997	-8e-06	1.3692268e-08
1.9800025932947244e-09	0.10798358	-7.464031e-05	0.68576545	0.685492	-8e-06	1.36923175e-08
1.990013618393937e-09	0.10798398	-7.5086056e-05	0.68575734	0.6854838	-8e-06	1.3692368e-08
2.0000246083993347e-09	0.10798442	-7.521191e-05	0.6857491	0.6854755	-8e-06	1.3692423e-08
2.010035596682909e-09	0.107984826	-7.5026896e-05	0.68574077	0.6854673	-8e-06	1.36924765e-08
2.0200465975861125e-09	0.107985236	-7.45305e-05	0.6857326	0.6854591	-8e-06	1.3692529e-08
2.030004899374993e-09	0.10798566	-7.374981e-05	0.6857247	0.6854511	-8e-06	1.3692582e-08
2.0400158910192162e-09	0.10798605	-7.268282e-05	0.6857168	0.6854432	-8e-06	1.3692631e-08
2.0500268718818397e-09	0.107986435	-7.1343566e-05	0.68570936	0.6854358	-8e-06	1.3692679e-08
2.060037843543706e-09	0.107986785	-6.976313e-05	0.6857023	0.6854287	-8e-06	1.3692726e-08
2.070048827645782e-09	0.107987106	-6.797261e-05	0.6856957	0.68542206	-8e-06	1.3692767e-08
2.0800071201790785e-09	0.10798742	-6.5990054e-05	0.6856896	0.6854159	-8e-06	1.3692805e-08
2.0900181387950433e-09	0.1079877	-6.3824475e-05	0.6856841	0.6854104	-8e-06	1.3692841e-08
2.1000291320320232e-09	0.10798797	-6.1512495e-05	0.68567914	0.68540543	-8e-06	1.36928735e-08
2.110040148352614e-09	0.10798821	-5.908569e-05	0.6856748	0.6854011	-8e-06	1.3692905e-08
2.120051137583397e-09	0.10798838	-5.656362e-05	0.68567127	0.6853975	-8e-06	1.3692927e-08
2.1300094605007076e-09	0.10798851	-5.3987893e-05	0.68566823	0.6853945	-8e-06	1.3692942e-08
2.1400204291009695e-09	0.10798858	-5.1364037e-05	0.68566597	0.6853923	-8e-06	1.36929525e-08
2.150031417622985e-09	0.10798865	-4.8738675e-05	0.68566453	0.68539083	-8e-06	1.36929605e-08
2.1600424616193344e-09	0.10798871	-4.6139885e-05	0.6856637	0.68539	-8e-06	1.3692968e-08
2.1700008088418816e-09	0.10798873	-4.360227e-05	0.6856636	0.6853899	-8e-06	1.3692971e-08
2.180011792997896e-09	0.10798871	-4.1111787e-05	0.6856641	0.6853904	-8e-06	1.3692968e-08
2.1900227752429184e-09	0.10798863	-3.8704537e-05	0.68566537	0.68539155	-8e-06	1.3692959e-08
2.2000337633721135e-09	0.10798852	-3.6413112e-05	0.68566716	0.68539345	-8e-06	1.36929454e-08
2.210044735331493e-09	0.1079884	-3.4263583e-05	0.68566954	0.68539584	-8e-06	1.36929295e-08
2.2200030564866303e-09	0.10798825	-3.2288044e-05	0.6856725	0.6853989	-8e-06	1.3692911e-08
2.2300140757932214e-09	0.10798809	-3.0476964e-05	0.6856761	0.68540245	-8e-06	1.36928895e-08
2.2400250523924858e-09	0.10798789	-2.8840375e-05	0.68568003	0.6854065	-8e-06	1.3692864e-08
2.2500360469038595e-09	0.10798768	-2.739482e-05	0.68568456	0.6854109	-8e-06	1.3692836e-08
2.2600470075575325e-09	0.10798743	-2.616738e-05	0.68568933	0.6854157	-8e-06	1.3692807e-08
2.270005322083636e-09	0.107987165	-2.5157296e-05	0.6856945	0.6854209	-8e-06	1.3692772e-08
2.28001632275425e-09	0.10798687	-2.4367833e-05	0.6856999	0.6854263	-8e-06	1.3692735e-08
2.2900273035413837e-09	0.10798657	-2.3806759e-05	0.6857055	0.68543184	-8e-06	1.36926985e-08
2.3000383042963316e-09	0.10798628	-2.3481347e-05	0.68571126	0.6854376	-8e-06	1.3692661e-08
2.3100493391256637e-09	0.10798602	-2.3385579e-05	0.685717	0.68544346	-8e-06	1.3692628e-08
2.3200076909453483e-09	0.10798572	-2.3504914e-05	0.6857228	0.68544924	-8e-06	1.369259e-08
2.330018694142246e-09	0.107985415	-2.3825813e-05	0.6857286	0.6854551	-8e-06	1.3692552e-08
2.3400296682682372e-09	0.10798513	-2.4362318e-05	0.6857343	0.68546075	-8e-06	1.3692515e-08
2.350040689151893e-09	0.107984856	-2.51054e-05	0.6857397	0.68546623	-8e-06	1.3692478e-08
2.360051708866976e-09	0.10798457	-2.6040023e-05	0.68574506	0.68547153	-8e-06	1.36924445e-08
2.370010008084833e-09	0.107984334	-2.7139104e-05	0.68575	0.6854765	-8e-06	1.36924125e-08
2.3800209467919315e-09	0.10798409	-2.8391616e-05	0.6857547	0.68548125	-8e-06	1.3692383e-08
2.390031953185724e-09	0.107983895	-2.9770985e-05	0.68575907	0.6854856	-8e-06	1.3692358e-08
2.4000429570756e-09	0.10798369	-3.128774e-05	0.68576294	0.68548954	-8e-06	1.3692331e-08
2.4100012411901515e-09	0.107983485	-3.2898253e-05	0.6857665	0.685493	-8e-06	1.3692305e-08
2.4200122120584687e-09	0.107983336	-3.4609053e-05	0.68576956	0.68549615	-8e-06	1.3692287e-08
2.430023240595641e-09	0.107983224	-3.638503e-05	0.6857721	0.6854988	-8e-06	1.3692274e-08
2.440034229095033e-09	0.107983135	-3.8209648e-05	0.6857743	0.6855009	-8e-06	1.36922615e-08
2.4500452471726458e-09	0.10798306	-4.0051815e-05	0.68577594	0.68550247	-8e-06	1.3692252e-08
2.4600035453440072e-09	0.107983	-4.188245e-05	0.685777	0.68550366	-8e-06	1.3692245e-08
2.4700145316423067e-09	0.10798296	-4.3717595e-05	0.68577766	0.68550426	-8e-06	1.369224e-08
2.480025533273059e-09	0.107982956	-4.5532684e-05	0.68577784	0.6855044	-8e-06	1.36922385e-08
2.490036531801634e-09	0.10798296	-4.729763e-05	0.68577754	0.68550414	-8e-06	1.3692239e-08
2.5000475228249942e-09	0.107983015	-4.9003418e-05	0.6857767	0.6855033	-8e-06	1.36922464e-08
2.510005831300941e-09	0.10798309	-5.061694e-05	0.68577546	0.6855021	-8e-06	1.3692255e-08
2.520016832430164e-09	0.107983164	-5.2139712e-05	0.6857739	0.68550044	-8e-06	1.3692265e-08
2.5300278280208077e-09	0.10798327	-5.355819e-05	0.6857718	0.68549836	-8e-06	1.3692279e-08
2.5400388583379333e-09	0.10798339	-5.4858334e-05	0.6857693	0.6854959	-8e-06	1.36922935e-08
2.5500498449389544e-09	0.107983515	-5.6034132e-05	0.6857666	0.6854931	-8e-06	1.36923095e-08
2.5600081339207913e-09	0.107983686	-5.7069537e-05	0.68576354	0.68549	-8e-06	1.3692328e-08
2.5700191039840496e-09	0.10798384	-5.7957026e-05	0.6857602	0.6854867	-8e-06	1.3692351e-08
2.580030082490193e-09	0.107984036	-5.8687572e-05	0.6857566	0.6854831	-8e-06	1.3692377e-08
2.590041067622315e-09	0.10798422	-5.926168e-05	0.6857528	0.6854793	-8e-06	1.3692401e-08
2.6000521097080532e-09	0.10798442	-5.968136e-05	0.68574893	0.68547535	-8e-06	1.3692424e-08
2.6100104251697336e-09	0.10798462	-5.994184e-05	0.68574494	0.68547136	-8e-06	1.3692448e-08
2.6200214396745255e-09	0.10798482	-6.003836e-05	0.6857408	0.6854673	-8e-06	1.3692476e-08
2.6300324739116783e-09	0.107985035	-5.999173e-05	0.6857367	0.68546325	-8e-06	1.3692503e-08
2.6400434897494486e-09	0.107985236	-5.9787657e-05	0.6857326	0.6854591	-8e-06	1.3692528e-08
2.6500017741671783e-09	0.107985444	-5.9422135e-05	0.68572867	0.6854551	-8e-06	1.3692555e-08
2.660012750776832e-09	0.107985675	-5.8916215e-05	0.6857248	0.68545127	-8e-06	1.3692582e-08
2.6700237335469857e-09	0.107985854	-5.829447e-05	0.68572104	0.68544745	-8e-06	1.3692607e-08
2.6800347319245247e-09	0.107986	-5.7543366e-05	0.68571746	0.6854439	-8e-06	1.3692625e-08
2.690045732939163e-09	0.10798615	-5.6666406e-05	0.6857141	0.68544054	-8e-06	1.3692644e-08
2.7000040267307545e-09	0.107986316	-5.5706212e-05	0.685711	0.6854375	-8e-06	1.3692666e-08
2.7100150409662805e-09	0.10798648	-5.466028e-05	0.6857082	0.68543464	-8e-06	1.3692686e-08
2.720026036671108e-09	0.10798663	-5.353312e-05	0.6857058	0.6854321	-8e-06	1.3692704e-08
2.7300370378555035e-09	0.107986726	-5.233501e-05	0.68570346	0.6854298	-8e-06	1.3692717e-08
2.740048020243023e-09	0.1079868	-5.1080242e-05	0.68570155	0.68542796	-8e-06	1.3692727e-08
2.750006325629143e-09	0.10798687	-4.9805665e-05	0.6857	0.6854264	-8e-06	1.3692735e-08
2.760017336040641e-09	0.10798693	-4.852758e-05	0.68569887	0.68542516	-8e-06	1.3692742e-08
2.7700283555442894e-09	0.10798698	-4.7234455e-05	0.685698	0.6854243	-8e-06	1.3692749e-08
2.780039348126473e-09	0.10798703	-4.5932306e-05	0.68569744	0.6854238	-8e-06	1.3692755e-08
2.790050349783169e-09	0.10798704	-4.4642187e-05	0.68569726	0.6854236	-8e-06	1.3692756e-08
2.80000864457553e-09	0.10798701	-4.339168e-05	0.6856974	0.68542373	-8e-06	1.3692753e-08
2.8100196452549955e-09	0.10798698	-4.217978e-05	0.6856979	0.6854242	-8e-06	1.3692748e-08
2.8200306190737576e-09	0.107986934	-4.1032563e-05	0.6856987	0.68542504	-8e-06	1.3692743e-08
2.830041646159117e-09	0.10798688	-3.9952036e-05	0.6856998	0.6854262	-8e-06	1.3692737e-08
2.840052615130519e-09	0.10798681	-3.8936185e-05	0.6857012	0.68542755	-8e-06	1.3692729e-08
2.8500109160254076e-09	0.10798674	-3.800357e-05	0.6857029	0.6854292	-8e-06	1.3692718e-08
2.8600219159293004e-09	0.107986644	-3.7152684e-05	0.68570477	0.6854311	-8e-06	1.36927065e-08
2.8700329384056525e-09	0.10798655	-3.6397065e-05	0.68570685	0.6854333	-8e-06	1.3692692e-08
2.88004393818729e-09	0.10798639	-3.5743233e-05	0.6857092	0.6854356	-8e-06	1.36926745e-08
2.890002250943067e-09	0.107986264	-3.5205223e-05	0.6857116	0.6854381	-8e-06	1.36926595e-08
2.9000132342078545e-09	0.10798615	-3.477652e-05	0.6857143	0.6854407	-8e-06	1.3692644e-08
2.9100241948779537e-09	0.107986026	-3.4462642e-05	0.6857169	0.6854434	-8e-06	1.3692627e-08
2.9200351788115534e-09	0.10798589	-3.425556e-05	0.6857198	0.6854462	-8e-06	1.369261e-08
2.9300461784790144e-09	0.10798574	-3.4150766e-05	0.68572265	0.6854491	-8e-06	1.369259e-08
2.9400045267725434e-09	0.10798559	-3.415829e-05	0.6857255	0.685452	-8e-06	1.3692572e-08
2.950015523847422e-09	0.10798543	-3.4285644e-05	0.6857284	0.68545485	-8e-06	1.3692553e-08
2.9600265328912086e-09	0.10798529	-3.45193e-05	0.6857312	0.68545765	-8e-06	1.3692533e-08
2.97003749651395e-09	0.10798517	-3.4848723e-05	0.6857339	0.6854603	-8e-06	1.3692518e-08
2.9800484898844424e-09	0.10798503	-3.5266396e-05	0.6857366	0.6854631	-8e-06	1.3692503e-08
2.9900067965990203e-09	0.10798491	-3.5770307e-05	0.6857391	0.68546563	-8e-06	1.3692486e-08
3e-09	0.10798478	-3.635946e-05	0.6857415	0.68546796	-8e-06	1.369247e-08
3.0100072343798484e-09	0.13759969	0.016316965	0.6781669	0.6777382	-8e-06	1.744764e-08
3.0200186122099974e-09	0.13638194	0.053161822	0.6702563	0.66970086	-8e-06	1.7293232e-08
3.0300297488067072e-09	0.10956008	0.076582074	0.663606	0.6630618	-8e-06	1.3892218e-08
3.040041558270717e-09	0.08065432	0.06743118	0.6578659	0.657348	-8e-06	1.0226969e-08
3.05e-09	0.07187623	0.036985576	0.6523687	0.65194315	-8e-06	9.113907e-09
3.060021734217221e-09	0.08790281	0.012406631	0.64638335	0.6460188	-8e-06	1.1146075e-08
3.0700330865319554e-09	0.114058234	0.012958576	0.6390882	0.6386882	-8e-06	1.4462584e-08
3.0800444494728103e-09	0.12905015	0.034518085	0.63065475	0.6302507	-8e-06	1.636356e-08
3.09000292142175e-09	0.12216068	0.055948213	0.62241447	0.62200284	-8e-06	1.5489974e-08
3.1e-09	0.10057402	0.059560366	0.61483306	0.6144524	-8e-06	1.2752785e-08
3.1100166247825236e-09	0.08232723	0.043921746	0.6076716	0.6073808	-8e-06	1.0439094e-08
3.120027490975278e-09	0.0816768	0.023715632	0.6005606	0.60032684	-8e-06	1.035662e-08
3.1300378650364265e-09	0.09761207	0.014832122	0.592719	0.59255815	-8e-06	1.237721e-08
3.140048061413031e-09	0.11573491	0.02223554	0.58367467	0.58352363	-8e-06	1.4675187e-08
3.15e-09	0.121107444	0.03703469	0.57400364	0.5738522	-8e-06	1.5356424e-08
3.1600148829220833e-09	0.10994011	0.04562266	0.5644586	0.5643406	-8e-06	1.3940405e-08
3.170025695460395e-09	0.092185035	0.04124373	0.55535316	0.5552829	-8e-06	1.1689062e-08
3.180036323909975e-09	0.08259254	0.028300911	0.54643	0.5464237	-8e-06	1.0472735e-08
3.1900466563706915e-09	0.08792896	0.017251998	0.537242	0.5372885	-8e-06	1.1149392e-08
3.2e-09	0.10193913	0.015523229	0.5272465	0.5273138	-8e-06	1.2925881e-08
3.2100139647156777e-09	0.111884125	0.022233682	0.51621515	0.5162544	-8e-06	1.4186907e-08
3.220024787040538e-09	0.10926418	0.030315692	0.5048219	0.50478715	-8e-06	1.3854698e-08
3.2300356392031134e-09	0.09670131	0.032579634	0.49365956	0.49355376	-8e-06	1.2261726e-08
3.240046412277357e-09	0.08477395	0.02724367	0.48285124	0.48269746	-8e-06	1.07493365e-08
3.25e-09	0.082690954	0.018802796	0.47219908	0.4720027	-8e-06	1.0485212e-08
3.2600138814985524e-09	0.090969704	0.013869035	0.46111804	0.46086034	-8e-06	1.1534959e-08
3.270024586731877e-09	0.10186706	0.015947262	0.44946906	0.44912708	-8e-06	1.2916742e-08
3.280035290187393e-09	0.10637909	0.022572435	0.43758106	0.43716174	-8e-06	1.348887e-08
3.290046076697253e-09	0.10164711	0.027999528	0.4259664	0.42550862	-8e-06	1.2888853e-08
3.3e-09	0.0926823	0.028227217	0.41490233	0.4144502	-8e-06	1.1752116e-08
3.3100140911751623e-09	0.0872804	0.023842601	0.40411332	0.40369985	-8e-06	1.1067155e-08
3.3200249540634505e-09	0.08971669	0.018833928	0.393303	0.39293835	-8e-06	1.1376075e-08
3.3300358771445846e-09	0.09742032	0.01714556	0.38208336	0.38176122	-8e-06	1.2352895e-08
3.340046960525682e-09	0.103568316	0.019548219	0.37037387	0.37008473	-8e-06	1.3132462e-08